TITLE = "VolumeData"
VARIABLES = "x" "y" "z"  "n"  "ux"  "uy"  "uz"  "p"  "T"  "rank" 
ZONE T= my_zone, SolutionTime = 0.0, DATAPACKING=Block, ZONETYPE=FEBRICK Nodes= 324 Elements= 80 VarLocation=([4-10]=CellCentered)   -1.3490906624e-04
   -1.3153633958e-04
   -1.3490906624e-04
   -1.3153633958e-04
   -1.3490906624e-04
   -1.3153633958e-04
   -1.3490906624e-04
   -1.3153633958e-04
   -1.2816361293e-04
   -1.2816361293e-04
   -1.2816361293e-04
   -1.2816361293e-04
   -1.2479088627e-04
   -1.2479088627e-04
   -1.2479088627e-04
   -1.2479088627e-04
   -1.2141815961e-04
   -1.2141815961e-04
   -1.2141815961e-04
   -1.2141815961e-04
   -1.1804543296e-04
   -1.1804543296e-04
   -1.1804543296e-04
   -1.1804543296e-04
   -1.1467270630e-04
   -1.1467270630e-04
   -1.1467270630e-04
   -1.1467270630e-04
   -1.1129997965e-04
   -1.1129997965e-04
   -1.1129997965e-04
   -1.1129997965e-04
   -1.0792725299e-04
   -1.0792725299e-04
   -1.0792725299e-04
   -1.0792725299e-04
   -1.0455452633e-04
   -1.0455452633e-04
   -1.0455452633e-04
   -1.0455452633e-04
   -1.0118179968e-04
   -1.0118179968e-04
   -1.0118179968e-04
   -1.0118179968e-04
   -9.7809073022e-05
   -9.7809073022e-05
   -9.7809073022e-05
   -9.7809073022e-05
   -9.4436346366e-05
   -9.4436346366e-05
   -9.4436346366e-05
   -9.4436346366e-05
   -9.1063619710e-05
   -9.1063619710e-05
   -9.1063619710e-05
   -9.1063619710e-05
   -8.7690893054e-05
   -8.7690893054e-05
   -8.7690893054e-05
   -8.7690893054e-05
   -8.4318166398e-05
   -8.4318166398e-05
   -8.4318166398e-05
   -8.4318166398e-05
   -8.0945439743e-05
   -8.0945439743e-05
   -8.0945439743e-05
   -8.0945439743e-05
   -7.7572713087e-05
   -7.7572713087e-05
   -7.7572713087e-05
   -7.7572713087e-05
   -7.4199986431e-05
   -7.4199986431e-05
   -7.4199986431e-05
   -7.4199986431e-05
   -7.0827259775e-05
   -7.0827259775e-05
   -7.0827259775e-05
   -7.0827259775e-05
   -6.7454533119e-05
   -6.7454533119e-05
   -6.7454533119e-05
   -6.7454533119e-05
   -6.4081806463e-05
   -6.4081806463e-05
   -6.4081806463e-05
   -6.4081806463e-05
   -6.0709079807e-05
   -6.0709079807e-05
   -6.0709079807e-05
   -6.0709079807e-05
   -5.7336353151e-05
   -5.7336353151e-05
   -5.7336353151e-05
   -5.7336353151e-05
   -5.3963626495e-05
   -5.3963626495e-05
   -5.3963626495e-05
   -5.3963626495e-05
   -5.0590899839e-05
   -5.0590899839e-05
   -5.0590899839e-05
   -5.0590899839e-05
   -4.7218173183e-05
   -4.7218173183e-05
   -4.7218173183e-05
   -4.7218173183e-05
   -4.3845446527e-05
   -4.3845446527e-05
   -4.3845446527e-05
   -4.3845446527e-05
   -4.0472719871e-05
   -4.0472719871e-05
   -4.0472719871e-05
   -4.0472719871e-05
   -3.7099993215e-05
   -3.7099993215e-05
   -3.7099993215e-05
   -3.7099993215e-05
   -3.3727266559e-05
   -3.3727266559e-05
   -3.3727266559e-05
   -3.3727266559e-05
   -3.0354539903e-05
   -3.0354539903e-05
   -3.0354539903e-05
   -3.0354539903e-05
   -2.6981813248e-05
   -2.6981813248e-05
   -2.6981813248e-05
   -2.6981813248e-05
   -2.3609086592e-05
   -2.3609086592e-05
   -2.3609086592e-05
   -2.3609086592e-05
   -2.0236359936e-05
   -2.0236359936e-05
   -2.0236359936e-05
   -2.0236359936e-05
   -1.6863633280e-05
   -1.6863633280e-05
   -1.6863633280e-05
   -1.6863633280e-05
   -1.3490906624e-05
   -1.3490906624e-05
   -1.3490906624e-05
   -1.3490906624e-05
   -1.0118179968e-05
   -1.0118179968e-05
   -1.0118179968e-05
   -1.0118179968e-05
   -6.7454533119e-06
   -6.7454533119e-06
   -6.7454533119e-06
   -6.7454533119e-06
   -3.3727266559e-06
   -3.3727266559e-06
   -3.3727266559e-06
   -3.3727266559e-06
    0.0000000000e+00
    0.0000000000e+00
    0.0000000000e+00
    0.0000000000e+00
    3.3727266559e-06
    3.3727266559e-06
    3.3727266559e-06
    3.3727266559e-06
    6.7454533119e-06
    6.7454533119e-06
    6.7454533119e-06
    6.7454533119e-06
    1.0118179968e-05
    1.0118179968e-05
    1.0118179968e-05
    1.0118179968e-05
    1.3490906624e-05
    1.3490906624e-05
    1.3490906624e-05
    1.3490906624e-05
    1.6863633280e-05
    1.6863633280e-05
    1.6863633280e-05
    1.6863633280e-05
    2.0236359936e-05
    2.0236359936e-05
    2.0236359936e-05
    2.0236359936e-05
    2.3609086592e-05
    2.3609086592e-05
    2.3609086592e-05
    2.3609086592e-05
    2.6981813248e-05
    2.6981813248e-05
    2.6981813248e-05
    2.6981813248e-05
    3.0354539903e-05
    3.0354539903e-05
    3.0354539903e-05
    3.0354539903e-05
    3.3727266559e-05
    3.3727266559e-05
    3.3727266559e-05
    3.3727266559e-05
    3.7099993215e-05
    3.7099993215e-05
    3.7099993215e-05
    3.7099993215e-05
    4.0472719871e-05
    4.0472719871e-05
    4.0472719871e-05
    4.0472719871e-05
    4.3845446527e-05
    4.3845446527e-05
    4.3845446527e-05
    4.3845446527e-05
    4.7218173183e-05
    4.7218173183e-05
    4.7218173183e-05
    4.7218173183e-05
    5.0590899839e-05
    5.0590899839e-05
    5.0590899839e-05
    5.0590899839e-05
    5.3963626495e-05
    5.3963626495e-05
    5.3963626495e-05
    5.3963626495e-05
    5.7336353151e-05
    5.7336353151e-05
    5.7336353151e-05
    5.7336353151e-05
    6.0709079807e-05
    6.0709079807e-05
    6.0709079807e-05
    6.0709079807e-05
    6.4081806463e-05
    6.4081806463e-05
    6.4081806463e-05
    6.4081806463e-05
    6.7454533119e-05
    6.7454533119e-05
    6.7454533119e-05
    6.7454533119e-05
    7.0827259775e-05
    7.0827259775e-05
    7.0827259775e-05
    7.0827259775e-05
    7.4199986431e-05
    7.4199986431e-05
    7.4199986431e-05
    7.4199986431e-05
    7.7572713087e-05
    7.7572713087e-05
    7.7572713087e-05
    7.7572713087e-05
    8.0945439743e-05
    8.0945439743e-05
    8.0945439743e-05
    8.0945439743e-05
    8.4318166398e-05
    8.4318166398e-05
    8.4318166398e-05
    8.4318166398e-05
    8.7690893054e-05
    8.7690893054e-05
    8.7690893054e-05
    8.7690893054e-05
    9.1063619710e-05
    9.1063619710e-05
    9.1063619710e-05
    9.1063619710e-05
    9.4436346366e-05
    9.4436346366e-05
    9.4436346366e-05
    9.4436346366e-05
    9.7809073022e-05
    9.7809073022e-05
    9.7809073022e-05
    9.7809073022e-05
    1.0118179968e-04
    1.0118179968e-04
    1.0118179968e-04
    1.0118179968e-04
    1.0455452633e-04
    1.0455452633e-04
    1.0455452633e-04
    1.0455452633e-04
    1.0792725299e-04
    1.0792725299e-04
    1.0792725299e-04
    1.0792725299e-04
    1.1129997965e-04
    1.1129997965e-04
    1.1129997965e-04
    1.1129997965e-04
    1.1467270630e-04
    1.1467270630e-04
    1.1467270630e-04
    1.1467270630e-04
    1.1804543296e-04
    1.1804543296e-04
    1.1804543296e-04
    1.1804543296e-04
    1.2141815961e-04
    1.2141815961e-04
    1.2141815961e-04
    1.2141815961e-04
    1.2479088627e-04
    1.2479088627e-04
    1.2479088627e-04
    1.2479088627e-04
    1.2816361293e-04
    1.2816361293e-04
    1.2816361293e-04
    1.2816361293e-04
    1.3153633958e-04
    1.3153633958e-04
    1.3153633958e-04
    1.3153633958e-04
    1.3490906624e-04
    1.3490906624e-04
    1.3490906624e-04
    1.3490906624e-04
    0.0000000000e+00
    0.0000000000e+00
    1.3490906624e-05
    1.3490906624e-05
    0.0000000000e+00
    0.0000000000e+00
    1.3490906624e-05
    1.3490906624e-05
    0.0000000000e+00
    1.3490906624e-05
    0.0000000000e+00
    1.3490906624e-05
    0.0000000000e+00
    1.3490906624e-05
    0.0000000000e+00
    1.3490906624e-05
    0.0000000000e+00
    1.3490906624e-05
    0.0000000000e+00
    1.3490906624e-05
    0.0000000000e+00
    1.3490906624e-05
    0.0000000000e+00
    1.3490906624e-05
    0.0000000000e+00
    1.3490906624e-05
    0.0000000000e+00
    1.3490906624e-05
    0.0000000000e+00
    1.3490906624e-05
    0.0000000000e+00
    1.3490906624e-05
    0.0000000000e+00
    1.3490906624e-05
    0.0000000000e+00
    1.3490906624e-05
    0.0000000000e+00
    1.3490906624e-05
    0.0000000000e+00
    1.3490906624e-05
    0.0000000000e+00
    1.3490906624e-05
    0.0000000000e+00
    1.3490906624e-05
    0.0000000000e+00
    1.3490906624e-05
    0.0000000000e+00
    1.3490906624e-05
    0.0000000000e+00
    1.3490906624e-05
    0.0000000000e+00
    1.3490906624e-05
    0.0000000000e+00
    1.3490906624e-05
    0.0000000000e+00
    1.3490906624e-05
    0.0000000000e+00
    1.3490906624e-05
    0.0000000000e+00
    1.3490906624e-05
    0.0000000000e+00
    1.3490906624e-05
    0.0000000000e+00
    1.3490906624e-05
    0.0000000000e+00
    1.3490906624e-05
    0.0000000000e+00
    1.3490906624e-05
    0.0000000000e+00
    1.3490906624e-05
    0.0000000000e+00
    1.3490906624e-05
    0.0000000000e+00
    1.3490906624e-05
    0.0000000000e+00
    1.3490906624e-05
    0.0000000000e+00
    1.3490906624e-05
    0.0000000000e+00
    1.3490906624e-05
    0.0000000000e+00
    1.3490906624e-05
    0.0000000000e+00
    1.3490906624e-05
    0.0000000000e+00
    1.3490906624e-05
    0.0000000000e+00
    1.3490906624e-05
    0.0000000000e+00
    1.3490906624e-05
    0.0000000000e+00
    1.3490906624e-05
    0.0000000000e+00
    1.3490906624e-05
    0.0000000000e+00
    1.3490906624e-05
    0.0000000000e+00
    1.3490906624e-05
    0.0000000000e+00
    1.3490906624e-05
    0.0000000000e+00
    1.3490906624e-05
    0.0000000000e+00
    1.3490906624e-05
    0.0000000000e+00
    1.3490906624e-05
    0.0000000000e+00
    1.3490906624e-05
    0.0000000000e+00
    1.3490906624e-05
    0.0000000000e+00
    1.3490906624e-05
    0.0000000000e+00
    1.3490906624e-05
    0.0000000000e+00
    1.3490906624e-05
    0.0000000000e+00
    1.3490906624e-05
    0.0000000000e+00
    1.3490906624e-05
    0.0000000000e+00
    1.3490906624e-05
    0.0000000000e+00
    1.3490906624e-05
    0.0000000000e+00
    1.3490906624e-05
    0.0000000000e+00
    1.3490906624e-05
    0.0000000000e+00
    1.3490906624e-05
    0.0000000000e+00
    1.3490906624e-05
    0.0000000000e+00
    1.3490906624e-05
    0.0000000000e+00
    1.3490906624e-05
    0.0000000000e+00
    1.3490906624e-05
    0.0000000000e+00
    1.3490906624e-05
    0.0000000000e+00
    1.3490906624e-05
    0.0000000000e+00
    1.3490906624e-05
    0.0000000000e+00
    1.3490906624e-05
    0.0000000000e+00
    1.3490906624e-05
    0.0000000000e+00
    1.3490906624e-05
    0.0000000000e+00
    1.3490906624e-05
    0.0000000000e+00
    1.3490906624e-05
    0.0000000000e+00
    1.3490906624e-05
    0.0000000000e+00
    1.3490906624e-05
    0.0000000000e+00
    1.3490906624e-05
    0.0000000000e+00
    1.3490906624e-05
    0.0000000000e+00
    1.3490906624e-05
    0.0000000000e+00
    1.3490906624e-05
    0.0000000000e+00
    1.3490906624e-05
    0.0000000000e+00
    1.3490906624e-05
    0.0000000000e+00
    1.3490906624e-05
    0.0000000000e+00
    1.3490906624e-05
    0.0000000000e+00
    1.3490906624e-05
    0.0000000000e+00
    1.3490906624e-05
    0.0000000000e+00
    1.3490906624e-05
    0.0000000000e+00
    1.3490906624e-05
    0.0000000000e+00
    1.3490906624e-05
    0.0000000000e+00
    1.3490906624e-05
    0.0000000000e+00
    1.3490906624e-05
    0.0000000000e+00
    1.3490906624e-05
    0.0000000000e+00
    1.3490906624e-05
    0.0000000000e+00
    1.3490906624e-05
    0.0000000000e+00
    1.3490906624e-05
    0.0000000000e+00
    1.3490906624e-05
    0.0000000000e+00
    1.3490906624e-05
    0.0000000000e+00
    1.3490906624e-05
    0.0000000000e+00
    1.3490906624e-05
    0.0000000000e+00
    1.3490906624e-05
    0.0000000000e+00
    1.3490906624e-05
    0.0000000000e+00
    1.3490906624e-05
    0.0000000000e+00
    1.3490906624e-05
    0.0000000000e+00
    1.3490906624e-05
    0.0000000000e+00
    1.3490906624e-05
    0.0000000000e+00
    1.3490906624e-05
    0.0000000000e+00
    1.3490906624e-05
    0.0000000000e+00
    1.3490906624e-05
    0.0000000000e+00
    1.3490906624e-05
    0.0000000000e+00
    1.3490906624e-05
    0.0000000000e+00
    1.3490906624e-05
    0.0000000000e+00
    1.3490906624e-05
    0.0000000000e+00
    1.3490906624e-05
    0.0000000000e+00
    1.3490906624e-05
    0.0000000000e+00
    1.3490906624e-05
    0.0000000000e+00
    1.3490906624e-05
    0.0000000000e+00
    1.3490906624e-05
    0.0000000000e+00
    1.3490906624e-05
    0.0000000000e+00
    1.3490906624e-05
    0.0000000000e+00
    1.3490906624e-05
    0.0000000000e+00
    1.3490906624e-05
    0.0000000000e+00
    1.3490906624e-05
    0.0000000000e+00
    1.3490906624e-05
    0.0000000000e+00
    1.3490906624e-05
    0.0000000000e+00
    1.3490906624e-05
    0.0000000000e+00
    1.3490906624e-05
    0.0000000000e+00
    1.3490906624e-05
    0.0000000000e+00
    1.3490906624e-05
    0.0000000000e+00
    1.3490906624e-05
    0.0000000000e+00
    1.3490906624e-05
    0.0000000000e+00
    1.3490906624e-05
    0.0000000000e+00
    1.3490906624e-05
    0.0000000000e+00
    1.3490906624e-05
    0.0000000000e+00
    1.3490906624e-05
    0.0000000000e+00
    1.3490906624e-05
    0.0000000000e+00
    1.3490906624e-05
    0.0000000000e+00
    1.3490906624e-05
    0.0000000000e+00
    1.3490906624e-05
    0.0000000000e+00
    1.3490906624e-05
    0.0000000000e+00
    1.3490906624e-05
    0.0000000000e+00
    1.3490906624e-05
    0.0000000000e+00
    1.3490906624e-05
    0.0000000000e+00
    1.3490906624e-05
    0.0000000000e+00
    1.3490906624e-05
    0.0000000000e+00
    1.3490906624e-05
    0.0000000000e+00
    1.3490906624e-05
    0.0000000000e+00
    1.3490906624e-05
    0.0000000000e+00
    1.3490906624e-05
    0.0000000000e+00
    1.3490906624e-05
    0.0000000000e+00
    1.3490906624e-05
    0.0000000000e+00
    1.3490906624e-05
    0.0000000000e+00
    1.3490906624e-05
    0.0000000000e+00
    1.3490906624e-05
    0.0000000000e+00
    1.3490906624e-05
    0.0000000000e+00
    1.3490906624e-05
    0.0000000000e+00
    1.3490906624e-05
    0.0000000000e+00
    1.3490906624e-05
    0.0000000000e+00
    1.3490906624e-05
    0.0000000000e+00
    1.3490906624e-05
    0.0000000000e+00
    0.0000000000e+00
    0.0000000000e+00
    0.0000000000e+00
    1.3490906624e-05
    1.3490906624e-05
    1.3490906624e-05
    1.3490906624e-05
    0.0000000000e+00
    0.0000000000e+00
    1.3490906624e-05
    1.3490906624e-05
    0.0000000000e+00
    0.0000000000e+00
    1.3490906624e-05
    1.3490906624e-05
    0.0000000000e+00
    0.0000000000e+00
    1.3490906624e-05
    1.3490906624e-05
    0.0000000000e+00
    0.0000000000e+00
    1.3490906624e-05
    1.3490906624e-05
    0.0000000000e+00
    0.0000000000e+00
    1.3490906624e-05
    1.3490906624e-05
    0.0000000000e+00
    0.0000000000e+00
    1.3490906624e-05
    1.3490906624e-05
    0.0000000000e+00
    0.0000000000e+00
    1.3490906624e-05
    1.3490906624e-05
    0.0000000000e+00
    0.0000000000e+00
    1.3490906624e-05
    1.3490906624e-05
    0.0000000000e+00
    0.0000000000e+00
    1.3490906624e-05
    1.3490906624e-05
    0.0000000000e+00
    0.0000000000e+00
    1.3490906624e-05
    1.3490906624e-05
    0.0000000000e+00
    0.0000000000e+00
    1.3490906624e-05
    1.3490906624e-05
    0.0000000000e+00
    0.0000000000e+00
    1.3490906624e-05
    1.3490906624e-05
    0.0000000000e+00
    0.0000000000e+00
    1.3490906624e-05
    1.3490906624e-05
    0.0000000000e+00
    0.0000000000e+00
    1.3490906624e-05
    1.3490906624e-05
    0.0000000000e+00
    0.0000000000e+00
    1.3490906624e-05
    1.3490906624e-05
    0.0000000000e+00
    0.0000000000e+00
    1.3490906624e-05
    1.3490906624e-05
    0.0000000000e+00
    0.0000000000e+00
    1.3490906624e-05
    1.3490906624e-05
    0.0000000000e+00
    0.0000000000e+00
    1.3490906624e-05
    1.3490906624e-05
    0.0000000000e+00
    0.0000000000e+00
    1.3490906624e-05
    1.3490906624e-05
    0.0000000000e+00
    0.0000000000e+00
    1.3490906624e-05
    1.3490906624e-05
    0.0000000000e+00
    0.0000000000e+00
    1.3490906624e-05
    1.3490906624e-05
    0.0000000000e+00
    0.0000000000e+00
    1.3490906624e-05
    1.3490906624e-05
    0.0000000000e+00
    0.0000000000e+00
    1.3490906624e-05
    1.3490906624e-05
    0.0000000000e+00
    0.0000000000e+00
    1.3490906624e-05
    1.3490906624e-05
    0.0000000000e+00
    0.0000000000e+00
    1.3490906624e-05
    1.3490906624e-05
    0.0000000000e+00
    0.0000000000e+00
    1.3490906624e-05
    1.3490906624e-05
    0.0000000000e+00
    0.0000000000e+00
    1.3490906624e-05
    1.3490906624e-05
    0.0000000000e+00
    0.0000000000e+00
    1.3490906624e-05
    1.3490906624e-05
    0.0000000000e+00
    0.0000000000e+00
    1.3490906624e-05
    1.3490906624e-05
    0.0000000000e+00
    0.0000000000e+00
    1.3490906624e-05
    1.3490906624e-05
    0.0000000000e+00
    0.0000000000e+00
    1.3490906624e-05
    1.3490906624e-05
    0.0000000000e+00
    0.0000000000e+00
    1.3490906624e-05
    1.3490906624e-05
    0.0000000000e+00
    0.0000000000e+00
    1.3490906624e-05
    1.3490906624e-05
    0.0000000000e+00
    0.0000000000e+00
    1.3490906624e-05
    1.3490906624e-05
    0.0000000000e+00
    0.0000000000e+00
    1.3490906624e-05
    1.3490906624e-05
    0.0000000000e+00
    0.0000000000e+00
    1.3490906624e-05
    1.3490906624e-05
    0.0000000000e+00
    0.0000000000e+00
    1.3490906624e-05
    1.3490906624e-05
    0.0000000000e+00
    0.0000000000e+00
    1.3490906624e-05
    1.3490906624e-05
    0.0000000000e+00
    0.0000000000e+00
    1.3490906624e-05
    1.3490906624e-05
    0.0000000000e+00
    0.0000000000e+00
    1.3490906624e-05
    1.3490906624e-05
    0.0000000000e+00
    0.0000000000e+00
    1.3490906624e-05
    1.3490906624e-05
    0.0000000000e+00
    0.0000000000e+00
    1.3490906624e-05
    1.3490906624e-05
    0.0000000000e+00
    0.0000000000e+00
    1.3490906624e-05
    1.3490906624e-05
    0.0000000000e+00
    0.0000000000e+00
    1.3490906624e-05
    1.3490906624e-05
    0.0000000000e+00
    0.0000000000e+00
    1.3490906624e-05
    1.3490906624e-05
    0.0000000000e+00
    0.0000000000e+00
    1.3490906624e-05
    1.3490906624e-05
    0.0000000000e+00
    0.0000000000e+00
    1.3490906624e-05
    1.3490906624e-05
    0.0000000000e+00
    0.0000000000e+00
    1.3490906624e-05
    1.3490906624e-05
    0.0000000000e+00
    0.0000000000e+00
    1.3490906624e-05
    1.3490906624e-05
    0.0000000000e+00
    0.0000000000e+00
    1.3490906624e-05
    1.3490906624e-05
    0.0000000000e+00
    0.0000000000e+00
    1.3490906624e-05
    1.3490906624e-05
    0.0000000000e+00
    0.0000000000e+00
    1.3490906624e-05
    1.3490906624e-05
    0.0000000000e+00
    0.0000000000e+00
    1.3490906624e-05
    1.3490906624e-05
    0.0000000000e+00
    0.0000000000e+00
    1.3490906624e-05
    1.3490906624e-05
    0.0000000000e+00
    0.0000000000e+00
    1.3490906624e-05
    1.3490906624e-05
    0.0000000000e+00
    0.0000000000e+00
    1.3490906624e-05
    1.3490906624e-05
    0.0000000000e+00
    0.0000000000e+00
    1.3490906624e-05
    1.3490906624e-05
    0.0000000000e+00
    0.0000000000e+00
    1.3490906624e-05
    1.3490906624e-05
    0.0000000000e+00
    0.0000000000e+00
    1.3490906624e-05
    1.3490906624e-05
    0.0000000000e+00
    0.0000000000e+00
    1.3490906624e-05
    1.3490906624e-05
    0.0000000000e+00
    0.0000000000e+00
    1.3490906624e-05
    1.3490906624e-05
    0.0000000000e+00
    0.0000000000e+00
    1.3490906624e-05
    1.3490906624e-05
    0.0000000000e+00
    0.0000000000e+00
    1.3490906624e-05
    1.3490906624e-05
    0.0000000000e+00
    0.0000000000e+00
    1.3490906624e-05
    1.3490906624e-05
    0.0000000000e+00
    0.0000000000e+00
    1.3490906624e-05
    1.3490906624e-05
    0.0000000000e+00
    0.0000000000e+00
    1.3490906624e-05
    1.3490906624e-05
    0.0000000000e+00
    0.0000000000e+00
    1.3490906624e-05
    1.3490906624e-05
    0.0000000000e+00
    0.0000000000e+00
    1.3490906624e-05
    1.3490906624e-05
    0.0000000000e+00
    0.0000000000e+00
    1.3490906624e-05
    1.3490906624e-05
    0.0000000000e+00
    0.0000000000e+00
    1.3490906624e-05
    1.3490906624e-05
    0.0000000000e+00
    0.0000000000e+00
    1.3490906624e-05
    1.3490906624e-05
    0.0000000000e+00
    0.0000000000e+00
    1.3490906624e-05
    1.3490906624e-05
    0.0000000000e+00
    0.0000000000e+00
    1.3490906624e-05
    1.3490906624e-05
    0.0000000000e+00
    0.0000000000e+00
    1.3490906624e-05
    1.3490906624e-05
    0.0000000000e+00
    0.0000000000e+00
    1.3490906624e-05
    1.3490906624e-05
    0.0000000000e+00
    0.0000000000e+00
    1.3490906624e-05
    1.3490906624e-05
    0.0000000000e+00
    0.0000000000e+00
    1.3490906624e-05
    1.3490906624e-05
    0.0000000000e+00
    0.0000000000e+00
    1.3490906624e-05
    1.3490906624e-05
    0.0000000000e+00
    0.0000000000e+00
    1.3490906624e-05
    1.3490906624e-05
    1.9994181613e+23
    1.9993929728e+23
    1.9993678056e+23
    1.9993426577e+23
    1.9993175274e+23
    1.9992924128e+23
    1.9992673119e+23
    1.9992422220e+23
    1.9992171391e+23
    1.9991920578e+23
    1.9991669709e+23
    1.9991418693e+23
    1.9991167416e+23
    1.9990915744e+23
    1.9990663520e+23
    1.9990410571e+23
    1.9990156706e+23
    1.9989901721e+23
    1.9989645404e+23
    1.9989387541e+23
    1.9989127923e+23
    1.9988866348e+23
    1.9988602633e+23
    1.9988336612e+23
    1.9988068149e+23
    1.9987797150e+23
    1.9987523536e+23
    1.9987247284e+23
    1.9986968413e+23
    1.9986686985e+23
    1.9986403113e+23
    1.9986116951e+23
    1.9985828700e+23
    1.9985538604e+23
    1.9985246945e+23
    1.9984954045e+23
    1.9984660258e+23
    1.9984365967e+23
    1.9984071579e+23
    1.9983777521e+23
    1.9983484236e+23
    1.9983192176e+23
    1.9982901797e+23
    1.9982613559e+23
    1.9982327914e+23
    1.9982045307e+23
    1.9981766172e+23
    1.9981490926e+23
    1.9981219969e+23
    1.9980953675e+23
    1.9980692399e+23
    1.9980436467e+23
    1.9980186178e+23
    1.9979941802e+23
    1.9979703581e+23
    1.9979471725e+23
    1.9979246414e+23
    1.9979027799e+23
    1.9978816002e+23
    1.9978611114e+23
    1.9978413199e+23
    1.9978222295e+23
    1.9978038414e+23
    1.9977861543e+23
    1.9977691646e+23
    1.9977528666e+23
    1.9977372529e+23
    1.9977223138e+23
    1.9977080385e+23
    1.9976944142e+23
    1.9976814272e+23
    1.9976690625e+23
    1.9976573041e+23
    1.9976461350e+23
    1.9976355379e+23
    1.9976254944e+23
    1.9976159862e+23
    1.9976069942e+23
    1.9975984994e+23
    1.9975904824e+23
    2.6323151506e+03
    2.6323170074e+03
    2.6323188669e+03
    2.6323207292e+03
    2.6323225945e+03
    2.6323244628e+03
    2.6323263341e+03
    2.6323282089e+03
    2.6323300874e+03
    2.6323319703e+03
    2.6323338582e+03
    2.6323357524e+03
    2.6323376542e+03
    2.6323395651e+03
    2.6323414872e+03
    2.6323434227e+03
    2.6323453739e+03
    2.6323473435e+03
    2.6323493343e+03
    2.6323513491e+03
    2.6323533907e+03
    2.6323554619e+03
    2.6323575651e+03
    2.6323597028e+03
    2.6323618769e+03
    2.6323640891e+03
    2.6323663408e+03
    2.6323686325e+03
    2.6323709648e+03
    2.6323733374e+03
    2.6323757494e+03
    2.6323781997e+03
    2.6323806866e+03
    2.6323832076e+03
    2.6323857601e+03
    2.6323883410e+03
    2.6323909466e+03
    2.6323935731e+03
    2.6323962163e+03
    2.6323988717e+03
    2.6324015346e+03
    2.6324042004e+03
    2.6324068641e+03
    2.6324095209e+03
    2.6324121659e+03
    2.6324147943e+03
    2.6324174013e+03
    2.6324199825e+03
    2.6324225334e+03
    2.6324250498e+03
    2.6324275279e+03
    2.6324299638e+03
    2.6324323543e+03
    2.6324346961e+03
    2.6324369865e+03
    2.6324392229e+03
    2.6324414031e+03
    2.6324435252e+03
    2.6324455875e+03
    2.6324475888e+03
    2.6324495279e+03
    2.6324514041e+03
    2.6324532169e+03
    2.6324549661e+03
    2.6324566516e+03
    2.6324582736e+03
    2.6324598326e+03
    2.6324613291e+03
    2.6324627639e+03
    2.6324641379e+03
    2.6324654522e+03
    2.6324667079e+03
    2.6324679064e+03
    2.6324690490e+03
    2.6324701373e+03
    2.6324711727e+03
    2.6324721569e+03
    2.6324730915e+03
    2.6324739781e+03
    2.6324748185e+03
   -3.1160677448e-12
   -2.2267722207e-12
   -3.3740538988e-12
   -7.9409015444e-12
   -1.2933354561e-11
   -1.6631469269e-11
   -2.3262884475e-11
   -3.1667325046e-11
   -4.5244138730e-11
   -5.8848892740e-11
   -7.5975275083e-11
   -9.3118851807e-11
   -1.0798321075e-10
   -1.2496925277e-10
   -1.4184888283e-10
   -1.5903087464e-10
   -1.6546673101e-10
   -1.6084195972e-10
   -1.5209745258e-10
   -1.3829022601e-10
   -1.1718429911e-10
   -1.0141382791e-10
   -8.5972817517e-11
   -7.1630410193e-11
   -5.7592972694e-11
   -4.2372825191e-11
   -3.2920443382e-11
   -2.1607484105e-11
   -1.0947741292e-11
   -2.5399821596e-12
    2.1561503016e-12
    7.6272356557e-12
    9.4488061031e-12
    1.1165392003e-11
    1.5233023364e-11
    1.6825679283e-11
    1.6878903397e-11
    1.8238554062e-11
    1.6714226318e-11
    1.5755470184e-11
    1.2100402551e-11
    1.4246636293e-11
    1.1348615730e-11
    1.1917847166e-11
    1.2468176598e-11
    1.1963601629e-11
    1.3695556770e-11
    1.2782349841e-11
    1.1192888184e-11
    1.0762775728e-11
    1.0168465344e-11
    1.1330971848e-11
    1.0623069403e-11
    1.4197178643e-11
    1.2498418383e-11
    1.1122245948e-11
    1.0798097033e-11
    8.5380552117e-12
    6.5049200575e-12
    5.4773695236e-12
    1.8458821629e-12
   -1.3831501653e-12
   -9.3877096052e-13
    1.2717406720e-12
    2.4754425774e-12
    3.4153298014e-12
    4.2651583050e-12
    4.0147843424e-12
    4.4340123834e-12
    3.8616166584e-12
    4.2023473794e-12
    3.4806208384e-12
    2.9404491802e-12
    3.3551869743e-12
    3.0134072454e-12
    4.7556013682e-12
    4.1707510583e-12
    5.2867791483e-12
    4.0293551219e-12
    1.5433950559e-12
    1.5924003426e-13
   -6.1029847563e-11
   -1.3147117611e-10
   -1.8867592498e-10
   -2.2163257201e-10
   -2.3512877520e-10
   -2.3682775555e-10
   -2.2937307261e-10
   -2.1617253304e-10
   -1.9974388803e-10
   -1.8038626766e-10
   -1.6218366549e-10
   -1.4544886383e-10
   -1.3330321756e-10
   -1.2334688578e-10
   -1.1737084059e-10
   -1.1697372133e-10
   -1.2374130296e-10
   -1.3789111445e-10
   -1.6149240714e-10
   -1.9445720906e-10
   -2.3779933831e-10
   -2.9102261042e-10
   -3.5407768948e-10
   -2.9290956128e-08
   -7.5993047060e-08
   -1.0584755588e-07
   -1.2326177506e-07
   -1.3162613806e-07
   -1.3353365048e-07
   -1.3095430062e-07
   -1.2537245022e-07
   -1.1789493810e-07
   -1.0933685543e-07
   -1.0029065778e-07
   -9.1176759059e-08
   -8.2285417162e-08
   -7.3809257848e-08
   -6.5867332404e-08
   -5.8526463641e-08
   -5.1813636692e-08
   -4.5728836239e-08
   -4.0253185149e-08
   -3.5355557814e-08
   -3.0997119939e-08
   -2.7135422279e-08
   -2.3755293943e-08
   -2.0753550021e-08
   -1.8128994560e-08
   -1.5818082232e-08
   -1.3798380575e-08
   -1.2036019118e-08
   -1.0500122921e-08
   -9.1628224337e-09
   -7.9994963065e-09
   -6.9880474839e-09
   -6.1089006132e-09
   -5.3447721920e-09
   -4.6805050410e-09
   -4.1029103307e-09
   -3.6004666258e-09
   -3.1630459072e-09
   -2.7820015022e-09
   -2.4497534286e-09
   -2.1597347968e-09
   -1.9063209121e-09
   -1.5260161648e-09
   -1.3415042643e-09
   -1.1819599707e-09
   -1.0435697211e-09
   -9.2312348947e-10
   -8.1810199690e-10
   -7.2625222158e-10
   -6.4576910678e-10
   -5.7495541481e-10
   -5.1257033370e-10
   -4.5741027731e-10
   -4.0854111639e-10
   -3.6521555460e-10
   -3.2670372020e-10
    5.5315479721e+02
    5.5319276913e+02
    5.5323066125e+02
    5.5326847320e+02
    5.5330620470e+02
    5.5334385555e+02
    5.5338142517e+02
    5.5341891200e+02
    5.5345631312e+02
    5.5349362354e+02
    5.5353083600e+02
    5.5356794034e+02
    5.5360492331e+02
    5.5364176835e+02
    5.5367845513e+02
    5.5371495975e+02
    5.5375125472e+02
    5.5378730889e+02
    5.5382308788e+02
    5.5385855440e+02
    5.5389366864e+02
    5.5392838893e+02
    5.5396267190e+02
    5.5399647336e+02
    5.5402974891e+02
    5.5406245541e+02
    5.5409454849e+02
    5.5412598671e+02
    5.5415673063e+02
    5.5418674332e+02
    5.5421599074e+02
    5.5424444205e+02
    5.5427206995e+02
    5.5429885082e+02
    5.5432476492e+02
    5.5434979642e+02
    5.5437393346e+02
    5.5439716808e+02
    5.5441949619e+02
    5.5444091738e+02
    5.5446143481e+02
    5.5448105500e+02
    5.5449978759e+02
    5.5451764511e+02
    5.5453464277e+02
    5.5455079813e+02
    5.5456613086e+02
    5.5458066249e+02
    5.5459441615e+02
    5.5460741626e+02
    5.5461968835e+02
    5.5463125878e+02
    5.5464215454e+02
    5.5465240303e+02
    5.5466203186e+02
    5.5467106870e+02
    5.5467954110e+02
    5.5468747634e+02
    5.5469490134e+02
    5.5470184248e+02
    5.5470832558e+02
    5.5471437577e+02
    5.5472001741e+02
    5.5472527409e+02
    5.5473016854e+02
    5.5473472261e+02
    5.5473895722e+02
    5.5474289242e+02
    5.5474654730e+02
    5.5474994003e+02
    5.5475308787e+02
    5.5475600718e+02
    5.5475871342e+02
    5.5476122120e+02
    5.5476354426e+02
    5.5476569557e+02
    5.5476768726e+02
    5.5476953074e+02
    5.5477123669e+02
    5.5477281507e+02
    2.0038257505e+02
    2.0039885514e+02
    2.0041510460e+02
    2.0043132348e+02
    2.0044751187e+02
    2.0046366988e+02
    2.0047979748e+02
    2.0049589440e+02
    2.0051195996e+02
    2.0052799290e+02
    2.0054399132e+02
    2.0055995244e+02
    2.0057587262e+02
    2.0059174718e+02
    2.0060757033e+02
    2.0062333516e+02
    2.0063903363e+02
    2.0065465649e+02
    2.0067019341e+02
    2.0068563302e+02
    2.0070096301e+02
    2.0071617029e+02
    2.0073124101e+02
    2.0074616081e+02
    2.0076091495e+02
    2.0077548876e+02
    2.0078986694e+02
    2.0080403471e+02
    2.0081797760e+02
    2.0083168156e+02
    2.0084513314e+02
    2.0085831961e+02
    2.0087122905e+02
    2.0088385044e+02
    2.0089617376e+02
    2.0090819004e+02
    2.0091989143e+02
    2.0093127116e+02
    2.0094232365e+02
    2.0095304443e+02
    2.0096343019e+02
    2.0097347873e+02
    2.0098318893e+02
    2.0099256072e+02
    2.0100159501e+02
    2.0101029367e+02