TITLE = "VolumeData"
VARIABLES = "x" "y" "z"  "n"  "ux"  "uy"  "uz"  "p"  "T"  "rank" 
ZONE T= my_zone, SolutionTime = 0.0, DATAPACKING=Block, ZONETYPE=FEBRICK Nodes= 324 Elements= 80 VarLocation=([4-10]=CellCentered)   -1.3490906624e-04
   -1.3153633958e-04
   -1.3490906624e-04
   -1.3153633958e-04
   -1.3490906624e-04
   -1.3153633958e-04
   -1.3490906624e-04
   -1.3153633958e-04
   -1.2816361293e-04
   -1.2816361293e-04
   -1.2816361293e-04
   -1.2816361293e-04
   -1.2479088627e-04
   -1.2479088627e-04
   -1.2479088627e-04
   -1.2479088627e-04
   -1.2141815961e-04
   -1.2141815961e-04
   -1.2141815961e-04
   -1.2141815961e-04
   -1.1804543296e-04
   -1.1804543296e-04
   -1.1804543296e-04
   -1.1804543296e-04
   -1.1467270630e-04
   -1.1467270630e-04
   -1.1467270630e-04
   -1.1467270630e-04
   -1.1129997965e-04
   -1.1129997965e-04
   -1.1129997965e-04
   -1.1129997965e-04
   -1.0792725299e-04
   -1.0792725299e-04
   -1.0792725299e-04
   -1.0792725299e-04
   -1.0455452633e-04
   -1.0455452633e-04
   -1.0455452633e-04
   -1.0455452633e-04
   -1.0118179968e-04
   -1.0118179968e-04
   -1.0118179968e-04
   -1.0118179968e-04
   -9.7809073022e-05
   -9.7809073022e-05
   -9.7809073022e-05
   -9.7809073022e-05
   -9.4436346366e-05
   -9.4436346366e-05
   -9.4436346366e-05
   -9.4436346366e-05
   -9.1063619710e-05
   -9.1063619710e-05
   -9.1063619710e-05
   -9.1063619710e-05
   -8.7690893054e-05
   -8.7690893054e-05
   -8.7690893054e-05
   -8.7690893054e-05
   -8.4318166398e-05
   -8.4318166398e-05
   -8.4318166398e-05
   -8.4318166398e-05
   -8.0945439743e-05
   -8.0945439743e-05
   -8.0945439743e-05
   -8.0945439743e-05
   -7.7572713087e-05
   -7.7572713087e-05
   -7.7572713087e-05
   -7.7572713087e-05
   -7.4199986431e-05
   -7.4199986431e-05
   -7.4199986431e-05
   -7.4199986431e-05
   -7.0827259775e-05
   -7.0827259775e-05
   -7.0827259775e-05
   -7.0827259775e-05
   -6.7454533119e-05
   -6.7454533119e-05
   -6.7454533119e-05
   -6.7454533119e-05
   -6.4081806463e-05
   -6.4081806463e-05
   -6.4081806463e-05
   -6.4081806463e-05
   -6.0709079807e-05
   -6.0709079807e-05
   -6.0709079807e-05
   -6.0709079807e-05
   -5.7336353151e-05
   -5.7336353151e-05
   -5.7336353151e-05
   -5.7336353151e-05
   -5.3963626495e-05
   -5.3963626495e-05
   -5.3963626495e-05
   -5.3963626495e-05
   -5.0590899839e-05
   -5.0590899839e-05
   -5.0590899839e-05
   -5.0590899839e-05
   -4.7218173183e-05
   -4.7218173183e-05
   -4.7218173183e-05
   -4.7218173183e-05
   -4.3845446527e-05
   -4.3845446527e-05
   -4.3845446527e-05
   -4.3845446527e-05
   -4.0472719871e-05
   -4.0472719871e-05
   -4.0472719871e-05
   -4.0472719871e-05
   -3.7099993215e-05
   -3.7099993215e-05
   -3.7099993215e-05
   -3.7099993215e-05
   -3.3727266559e-05
   -3.3727266559e-05
   -3.3727266559e-05
   -3.3727266559e-05
   -3.0354539903e-05
   -3.0354539903e-05
   -3.0354539903e-05
   -3.0354539903e-05
   -2.6981813248e-05
   -2.6981813248e-05
   -2.6981813248e-05
   -2.6981813248e-05
   -2.3609086592e-05
   -2.3609086592e-05
   -2.3609086592e-05
   -2.3609086592e-05
   -2.0236359936e-05
   -2.0236359936e-05
   -2.0236359936e-05
   -2.0236359936e-05
   -1.6863633280e-05
   -1.6863633280e-05
   -1.6863633280e-05
   -1.6863633280e-05
   -1.3490906624e-05
   -1.3490906624e-05
   -1.3490906624e-05
   -1.3490906624e-05
   -1.0118179968e-05
   -1.0118179968e-05
   -1.0118179968e-05
   -1.0118179968e-05
   -6.7454533119e-06
   -6.7454533119e-06
   -6.7454533119e-06
   -6.7454533119e-06
   -3.3727266559e-06
   -3.3727266559e-06
   -3.3727266559e-06
   -3.3727266559e-06
    0.0000000000e+00
    0.0000000000e+00
    0.0000000000e+00
    0.0000000000e+00
    3.3727266559e-06
    3.3727266559e-06
    3.3727266559e-06
    3.3727266559e-06
    6.7454533119e-06
    6.7454533119e-06
    6.7454533119e-06
    6.7454533119e-06
    1.0118179968e-05
    1.0118179968e-05
    1.0118179968e-05
    1.0118179968e-05
    1.3490906624e-05
    1.3490906624e-05
    1.3490906624e-05
    1.3490906624e-05
    1.6863633280e-05
    1.6863633280e-05
    1.6863633280e-05
    1.6863633280e-05
    2.0236359936e-05
    2.0236359936e-05
    2.0236359936e-05
    2.0236359936e-05
    2.3609086592e-05
    2.3609086592e-05
    2.3609086592e-05
    2.3609086592e-05
    2.6981813248e-05
    2.6981813248e-05
    2.6981813248e-05
    2.6981813248e-05
    3.0354539903e-05
    3.0354539903e-05
    3.0354539903e-05
    3.0354539903e-05
    3.3727266559e-05
    3.3727266559e-05
    3.3727266559e-05
    3.3727266559e-05
    3.7099993215e-05
    3.7099993215e-05
    3.7099993215e-05
    3.7099993215e-05
    4.0472719871e-05
    4.0472719871e-05
    4.0472719871e-05
    4.0472719871e-05
    4.3845446527e-05
    4.3845446527e-05
    4.3845446527e-05
    4.3845446527e-05
    4.7218173183e-05
    4.7218173183e-05
    4.7218173183e-05
    4.7218173183e-05
    5.0590899839e-05
    5.0590899839e-05
    5.0590899839e-05
    5.0590899839e-05
    5.3963626495e-05
    5.3963626495e-05
    5.3963626495e-05
    5.3963626495e-05
    5.7336353151e-05
    5.7336353151e-05
    5.7336353151e-05
    5.7336353151e-05
    6.0709079807e-05
    6.0709079807e-05
    6.0709079807e-05
    6.0709079807e-05
    6.4081806463e-05
    6.4081806463e-05
    6.4081806463e-05
    6.4081806463e-05
    6.7454533119e-05
    6.7454533119e-05
    6.7454533119e-05
    6.7454533119e-05
    7.0827259775e-05
    7.0827259775e-05
    7.0827259775e-05
    7.0827259775e-05
    7.4199986431e-05
    7.4199986431e-05
    7.4199986431e-05
    7.4199986431e-05
    7.7572713087e-05
    7.7572713087e-05
    7.7572713087e-05
    7.7572713087e-05
    8.0945439743e-05
    8.0945439743e-05
    8.0945439743e-05
    8.0945439743e-05
    8.4318166398e-05
    8.4318166398e-05
    8.4318166398e-05
    8.4318166398e-05
    8.7690893054e-05
    8.7690893054e-05
    8.7690893054e-05
    8.7690893054e-05
    9.1063619710e-05
    9.1063619710e-05
    9.1063619710e-05
    9.1063619710e-05
    9.4436346366e-05
    9.4436346366e-05
    9.4436346366e-05
    9.4436346366e-05
    9.7809073022e-05
    9.7809073022e-05
    9.7809073022e-05
    9.7809073022e-05
    1.0118179968e-04
    1.0118179968e-04
    1.0118179968e-04
    1.0118179968e-04
    1.0455452633e-04
    1.0455452633e-04
    1.0455452633e-04
    1.0455452633e-04
    1.0792725299e-04
    1.0792725299e-04
    1.0792725299e-04
    1.0792725299e-04
    1.1129997965e-04
    1.1129997965e-04
    1.1129997965e-04
    1.1129997965e-04
    1.1467270630e-04
    1.1467270630e-04
    1.1467270630e-04
    1.1467270630e-04
    1.1804543296e-04
    1.1804543296e-04
    1.1804543296e-04
    1.1804543296e-04
    1.2141815961e-04
    1.2141815961e-04
    1.2141815961e-04
    1.2141815961e-04
    1.2479088627e-04
    1.2479088627e-04
    1.2479088627e-04
    1.2479088627e-04
    1.2816361293e-04
    1.2816361293e-04
    1.2816361293e-04
    1.2816361293e-04
    1.3153633958e-04
    1.3153633958e-04
    1.3153633958e-04
    1.3153633958e-04
    1.3490906624e-04
    1.3490906624e-04
    1.3490906624e-04
    1.3490906624e-04
    0.0000000000e+00
    0.0000000000e+00
    1.3490906624e-05
    1.3490906624e-05
    0.0000000000e+00
    0.0000000000e+00
    1.3490906624e-05
    1.3490906624e-05
    0.0000000000e+00
    1.3490906624e-05
    0.0000000000e+00
    1.3490906624e-05
    0.0000000000e+00
    1.3490906624e-05
    0.0000000000e+00
    1.3490906624e-05
    0.0000000000e+00
    1.3490906624e-05
    0.0000000000e+00
    1.3490906624e-05
    0.0000000000e+00
    1.3490906624e-05
    0.0000000000e+00
    1.3490906624e-05
    0.0000000000e+00
    1.3490906624e-05
    0.0000000000e+00
    1.3490906624e-05
    0.0000000000e+00
    1.3490906624e-05
    0.0000000000e+00
    1.3490906624e-05
    0.0000000000e+00
    1.3490906624e-05
    0.0000000000e+00
    1.3490906624e-05
    0.0000000000e+00
    1.3490906624e-05
    0.0000000000e+00
    1.3490906624e-05
    0.0000000000e+00
    1.3490906624e-05
    0.0000000000e+00
    1.3490906624e-05
    0.0000000000e+00
    1.3490906624e-05
    0.0000000000e+00
    1.3490906624e-05
    0.0000000000e+00
    1.3490906624e-05
    0.0000000000e+00
    1.3490906624e-05
    0.0000000000e+00
    1.3490906624e-05
    0.0000000000e+00
    1.3490906624e-05
    0.0000000000e+00
    1.3490906624e-05
    0.0000000000e+00
    1.3490906624e-05
    0.0000000000e+00
    1.3490906624e-05
    0.0000000000e+00
    1.3490906624e-05
    0.0000000000e+00
    1.3490906624e-05
    0.0000000000e+00
    1.3490906624e-05
    0.0000000000e+00
    1.3490906624e-05
    0.0000000000e+00
    1.3490906624e-05
    0.0000000000e+00
    1.3490906624e-05
    0.0000000000e+00
    1.3490906624e-05
    0.0000000000e+00
    1.3490906624e-05
    0.0000000000e+00
    1.3490906624e-05
    0.0000000000e+00
    1.3490906624e-05
    0.0000000000e+00
    1.3490906624e-05
    0.0000000000e+00
    1.3490906624e-05
    0.0000000000e+00
    1.3490906624e-05
    0.0000000000e+00
    1.3490906624e-05
    0.0000000000e+00
    1.3490906624e-05
    0.0000000000e+00
    1.3490906624e-05
    0.0000000000e+00
    1.3490906624e-05
    0.0000000000e+00
    1.3490906624e-05
    0.0000000000e+00
    1.3490906624e-05
    0.0000000000e+00
    1.3490906624e-05
    0.0000000000e+00
    1.3490906624e-05
    0.0000000000e+00
    1.3490906624e-05
    0.0000000000e+00
    1.3490906624e-05
    0.0000000000e+00
    1.3490906624e-05
    0.0000000000e+00
    1.3490906624e-05
    0.0000000000e+00
    1.3490906624e-05
    0.0000000000e+00
    1.3490906624e-05
    0.0000000000e+00
    1.3490906624e-05
    0.0000000000e+00
    1.3490906624e-05
    0.0000000000e+00
    1.3490906624e-05
    0.0000000000e+00
    1.3490906624e-05
    0.0000000000e+00
    1.3490906624e-05
    0.0000000000e+00
    1.3490906624e-05
    0.0000000000e+00
    1.3490906624e-05
    0.0000000000e+00
    1.3490906624e-05
    0.0000000000e+00
    1.3490906624e-05
    0.0000000000e+00
    1.3490906624e-05
    0.0000000000e+00
    1.3490906624e-05
    0.0000000000e+00
    1.3490906624e-05
    0.0000000000e+00
    1.3490906624e-05
    0.0000000000e+00
    1.3490906624e-05
    0.0000000000e+00
    1.3490906624e-05
    0.0000000000e+00
    1.3490906624e-05
    0.0000000000e+00
    1.3490906624e-05
    0.0000000000e+00
    1.3490906624e-05
    0.0000000000e+00
    1.3490906624e-05
    0.0000000000e+00
    1.3490906624e-05
    0.0000000000e+00
    1.3490906624e-05
    0.0000000000e+00
    1.3490906624e-05
    0.0000000000e+00
    1.3490906624e-05
    0.0000000000e+00
    1.3490906624e-05
    0.0000000000e+00
    1.3490906624e-05
    0.0000000000e+00
    1.3490906624e-05
    0.0000000000e+00
    1.3490906624e-05
    0.0000000000e+00
    1.3490906624e-05
    0.0000000000e+00
    1.3490906624e-05
    0.0000000000e+00
    1.3490906624e-05
    0.0000000000e+00
    1.3490906624e-05
    0.0000000000e+00
    1.3490906624e-05
    0.0000000000e+00
    1.3490906624e-05
    0.0000000000e+00
    1.3490906624e-05
    0.0000000000e+00
    1.3490906624e-05
    0.0000000000e+00
    1.3490906624e-05
    0.0000000000e+00
    1.3490906624e-05
    0.0000000000e+00
    1.3490906624e-05
    0.0000000000e+00
    1.3490906624e-05
    0.0000000000e+00
    1.3490906624e-05
    0.0000000000e+00
    1.3490906624e-05
    0.0000000000e+00
    1.3490906624e-05
    0.0000000000e+00
    1.3490906624e-05
    0.0000000000e+00
    1.3490906624e-05
    0.0000000000e+00
    1.3490906624e-05
    0.0000000000e+00
    1.3490906624e-05
    0.0000000000e+00
    1.3490906624e-05
    0.0000000000e+00
    1.3490906624e-05
    0.0000000000e+00
    1.3490906624e-05
    0.0000000000e+00
    1.3490906624e-05
    0.0000000000e+00
    1.3490906624e-05
    0.0000000000e+00
    1.3490906624e-05
    0.0000000000e+00
    1.3490906624e-05
    0.0000000000e+00
    1.3490906624e-05
    0.0000000000e+00
    1.3490906624e-05
    0.0000000000e+00
    1.3490906624e-05
    0.0000000000e+00
    1.3490906624e-05
    0.0000000000e+00
    1.3490906624e-05
    0.0000000000e+00
    1.3490906624e-05
    0.0000000000e+00
    1.3490906624e-05
    0.0000000000e+00
    1.3490906624e-05
    0.0000000000e+00
    1.3490906624e-05
    0.0000000000e+00
    1.3490906624e-05
    0.0000000000e+00
    1.3490906624e-05
    0.0000000000e+00
    1.3490906624e-05
    0.0000000000e+00
    1.3490906624e-05
    0.0000000000e+00
    1.3490906624e-05
    0.0000000000e+00
    1.3490906624e-05
    0.0000000000e+00
    1.3490906624e-05
    0.0000000000e+00
    1.3490906624e-05
    0.0000000000e+00
    1.3490906624e-05
    0.0000000000e+00
    1.3490906624e-05
    0.0000000000e+00
    1.3490906624e-05
    0.0000000000e+00
    1.3490906624e-05
    0.0000000000e+00
    1.3490906624e-05
    0.0000000000e+00
    1.3490906624e-05
    0.0000000000e+00
    1.3490906624e-05
    0.0000000000e+00
    1.3490906624e-05
    0.0000000000e+00
    1.3490906624e-05
    0.0000000000e+00
    1.3490906624e-05
    0.0000000000e+00
    1.3490906624e-05
    0.0000000000e+00
    1.3490906624e-05
    0.0000000000e+00
    1.3490906624e-05
    0.0000000000e+00
    1.3490906624e-05
    0.0000000000e+00
    1.3490906624e-05
    0.0000000000e+00
    1.3490906624e-05
    0.0000000000e+00
    1.3490906624e-05
    0.0000000000e+00
    1.3490906624e-05
    0.0000000000e+00
    1.3490906624e-05
    0.0000000000e+00
    1.3490906624e-05
    0.0000000000e+00
    1.3490906624e-05
    0.0000000000e+00
    1.3490906624e-05
    0.0000000000e+00
    1.3490906624e-05
    0.0000000000e+00
    1.3490906624e-05
    0.0000000000e+00
    1.3490906624e-05
    0.0000000000e+00
    1.3490906624e-05
    0.0000000000e+00
    1.3490906624e-05
    0.0000000000e+00
    1.3490906624e-05
    0.0000000000e+00
    1.3490906624e-05
    0.0000000000e+00
    1.3490906624e-05
    0.0000000000e+00
    1.3490906624e-05
    0.0000000000e+00
    1.3490906624e-05
    0.0000000000e+00
    1.3490906624e-05
    0.0000000000e+00
    1.3490906624e-05
    0.0000000000e+00
    0.0000000000e+00
    0.0000000000e+00
    0.0000000000e+00
    1.3490906624e-05
    1.3490906624e-05
    1.3490906624e-05
    1.3490906624e-05
    0.0000000000e+00
    0.0000000000e+00
    1.3490906624e-05
    1.3490906624e-05
    0.0000000000e+00
    0.0000000000e+00
    1.3490906624e-05
    1.3490906624e-05
    0.0000000000e+00
    0.0000000000e+00
    1.3490906624e-05
    1.3490906624e-05
    0.0000000000e+00
    0.0000000000e+00
    1.3490906624e-05
    1.3490906624e-05
    0.0000000000e+00
    0.0000000000e+00
    1.3490906624e-05
    1.3490906624e-05
    0.0000000000e+00
    0.0000000000e+00
    1.3490906624e-05
    1.3490906624e-05
    0.0000000000e+00
    0.0000000000e+00
    1.3490906624e-05
    1.3490906624e-05
    0.0000000000e+00
    0.0000000000e+00
    1.3490906624e-05
    1.3490906624e-05
    0.0000000000e+00
    0.0000000000e+00
    1.3490906624e-05
    1.3490906624e-05
    0.0000000000e+00
    0.0000000000e+00
    1.3490906624e-05
    1.3490906624e-05
    0.0000000000e+00
    0.0000000000e+00
    1.3490906624e-05
    1.3490906624e-05
    0.0000000000e+00
    0.0000000000e+00
    1.3490906624e-05
    1.3490906624e-05
    0.0000000000e+00
    0.0000000000e+00
    1.3490906624e-05
    1.3490906624e-05
    0.0000000000e+00
    0.0000000000e+00
    1.3490906624e-05
    1.3490906624e-05
    0.0000000000e+00
    0.0000000000e+00
    1.3490906624e-05
    1.3490906624e-05
    0.0000000000e+00
    0.0000000000e+00
    1.3490906624e-05
    1.3490906624e-05
    0.0000000000e+00
    0.0000000000e+00
    1.3490906624e-05
    1.3490906624e-05
    0.0000000000e+00
    0.0000000000e+00
    1.3490906624e-05
    1.3490906624e-05
    0.0000000000e+00
    0.0000000000e+00
    1.3490906624e-05
    1.3490906624e-05
    0.0000000000e+00
    0.0000000000e+00
    1.3490906624e-05
    1.3490906624e-05
    0.0000000000e+00
    0.0000000000e+00
    1.3490906624e-05
    1.3490906624e-05
    0.0000000000e+00
    0.0000000000e+00
    1.3490906624e-05
    1.3490906624e-05
    0.0000000000e+00
    0.0000000000e+00
    1.3490906624e-05
    1.3490906624e-05
    0.0000000000e+00
    0.0000000000e+00
    1.3490906624e-05
    1.3490906624e-05
    0.0000000000e+00
    0.0000000000e+00
    1.3490906624e-05
    1.3490906624e-05
    0.0000000000e+00
    0.0000000000e+00
    1.3490906624e-05
    1.3490906624e-05
    0.0000000000e+00
    0.0000000000e+00
    1.3490906624e-05
    1.3490906624e-05
    0.0000000000e+00
    0.0000000000e+00
    1.3490906624e-05
    1.3490906624e-05
    0.0000000000e+00
    0.0000000000e+00
    1.3490906624e-05
    1.3490906624e-05
    0.0000000000e+00
    0.0000000000e+00
    1.3490906624e-05
    1.3490906624e-05
    0.0000000000e+00
    0.0000000000e+00
    1.3490906624e-05
    1.3490906624e-05
    0.0000000000e+00
    0.0000000000e+00
    1.3490906624e-05
    1.3490906624e-05
    0.0000000000e+00
    0.0000000000e+00
    1.3490906624e-05
    1.3490906624e-05
    0.0000000000e+00
    0.0000000000e+00
    1.3490906624e-05
    1.3490906624e-05
    0.0000000000e+00
    0.0000000000e+00
    1.3490906624e-05
    1.3490906624e-05
    0.0000000000e+00
    0.0000000000e+00
    1.3490906624e-05
    1.3490906624e-05
    0.0000000000e+00
    0.0000000000e+00
    1.3490906624e-05
    1.3490906624e-05
    0.0000000000e+00
    0.0000000000e+00
    1.3490906624e-05
    1.3490906624e-05
    0.0000000000e+00
    0.0000000000e+00
    1.3490906624e-05
    1.3490906624e-05
    0.0000000000e+00
    0.0000000000e+00
    1.3490906624e-05
    1.3490906624e-05
    0.0000000000e+00
    0.0000000000e+00
    1.3490906624e-05
    1.3490906624e-05
    0.0000000000e+00
    0.0000000000e+00
    1.3490906624e-05
    1.3490906624e-05
    0.0000000000e+00
    0.0000000000e+00
    1.3490906624e-05
    1.3490906624e-05
    0.0000000000e+00
    0.0000000000e+00
    1.3490906624e-05
    1.3490906624e-05
    0.0000000000e+00
    0.0000000000e+00
    1.3490906624e-05
    1.3490906624e-05
    0.0000000000e+00
    0.0000000000e+00
    1.3490906624e-05
    1.3490906624e-05
    0.0000000000e+00
    0.0000000000e+00
    1.3490906624e-05
    1.3490906624e-05
    0.0000000000e+00
    0.0000000000e+00
    1.3490906624e-05
    1.3490906624e-05
    0.0000000000e+00
    0.0000000000e+00
    1.3490906624e-05
    1.3490906624e-05
    0.0000000000e+00
    0.0000000000e+00
    1.3490906624e-05
    1.3490906624e-05
    0.0000000000e+00
    0.0000000000e+00
    1.3490906624e-05
    1.3490906624e-05
    0.0000000000e+00
    0.0000000000e+00
    1.3490906624e-05
    1.3490906624e-05
    0.0000000000e+00
    0.0000000000e+00
    1.3490906624e-05
    1.3490906624e-05
    0.0000000000e+00
    0.0000000000e+00
    1.3490906624e-05
    1.3490906624e-05
    0.0000000000e+00
    0.0000000000e+00
    1.3490906624e-05
    1.3490906624e-05
    0.0000000000e+00
    0.0000000000e+00
    1.3490906624e-05
    1.3490906624e-05
    0.0000000000e+00
    0.0000000000e+00
    1.3490906624e-05
    1.3490906624e-05
    0.0000000000e+00
    0.0000000000e+00
    1.3490906624e-05
    1.3490906624e-05
    0.0000000000e+00
    0.0000000000e+00
    1.3490906624e-05
    1.3490906624e-05
    0.0000000000e+00
    0.0000000000e+00
    1.3490906624e-05
    1.3490906624e-05
    0.0000000000e+00
    0.0000000000e+00
    1.3490906624e-05
    1.3490906624e-05
    0.0000000000e+00
    0.0000000000e+00
    1.3490906624e-05
    1.3490906624e-05
    0.0000000000e+00
    0.0000000000e+00
    1.3490906624e-05
    1.3490906624e-05
    0.0000000000e+00
    0.0000000000e+00
    1.3490906624e-05
    1.3490906624e-05
    0.0000000000e+00
    0.0000000000e+00
    1.3490906624e-05
    1.3490906624e-05
    0.0000000000e+00
    0.0000000000e+00
    1.3490906624e-05
    1.3490906624e-05
    0.0000000000e+00
    0.0000000000e+00
    1.3490906624e-05
    1.3490906624e-05
    0.0000000000e+00
    0.0000000000e+00
    1.3490906624e-05
    1.3490906624e-05
    0.0000000000e+00
    0.0000000000e+00
    1.3490906624e-05
    1.3490906624e-05
    0.0000000000e+00
    0.0000000000e+00
    1.3490906624e-05
    1.3490906624e-05
    0.0000000000e+00
    0.0000000000e+00
    1.3490906624e-05
    1.3490906624e-05
    0.0000000000e+00
    0.0000000000e+00
    1.3490906624e-05
    1.3490906624e-05
    0.0000000000e+00
    0.0000000000e+00
    1.3490906624e-05
    1.3490906624e-05
    0.0000000000e+00
    0.0000000000e+00
    1.3490906624e-05
    1.3490906624e-05
    0.0000000000e+00
    0.0000000000e+00
    1.3490906624e-05
    1.3490906624e-05
    0.0000000000e+00
    0.0000000000e+00
    1.3490906624e-05
    1.3490906624e-05
    0.0000000000e+00
    0.0000000000e+00
    1.3490906624e-05
    1.3490906624e-05
    0.0000000000e+00
    0.0000000000e+00
    1.3490906624e-05
    1.3490906624e-05
    0.0000000000e+00
    0.0000000000e+00
    1.3490906624e-05
    1.3490906624e-05
    2.0042816572e+23
    2.0056210305e+23
    2.0070542753e+23
    2.0085931001e+23
    2.0102505380e+23
    2.0120409209e+23
    2.0139815162e+23
    2.0160894296e+23
    2.0183878274e+23
    2.0209017263e+23
    2.0236604683e+23
    2.0267001078e+23
    2.0300611869e+23
    2.0337926913e+23
    2.0379547622e+23
    2.0426195426e+23
    2.0478767418e+23
    2.0538341382e+23
    2.0606326501e+23
    2.0684487148e+23
    2.0775143545e+23
    2.0881399942e+23
    2.1007556186e+23
    2.1159766738e+23
    2.1347224632e+23
    2.1584103899e+23
    2.1892348462e+23
    2.2303893398e+23
    2.2856825773e+23
    2.3579009079e+23
    2.4473480165e+23
    2.5538528464e+23
    2.6810776522e+23
    2.8390033654e+23
    3.0441175536e+23
    3.3173027041e+23
    3.6766039333e+23
    4.1242496623e+23
    4.6370321944e+23
    5.1717683265e+23
    5.6827336549e+23
    6.1367159173e+23
    6.5178378596e+23
    6.8244923934e+23
    7.0636748541e+23
    7.2460637707e+23
    7.3828600688e+23
    7.4841763213e+23
    7.5584404648e+23
    7.6123500237e+23
    7.6510714096e+23
    7.6785166605e+23
    7.6976148665e+23
    7.7105461917e+23
    7.7189302288e+23
    7.7239721344e+23
    7.7265721245e+23
    7.7274083627e+23
    7.7269959498e+23
    7.7257307279e+23
    7.7239204358e+23
    7.7218069433e+23
    7.7195819734e+23
    7.7173981814e+23
    7.7153766638e+23
    7.7136125481e+23
    7.7121787872e+23
    7.7111289299e+23
    7.7104994733e+23
    7.7103118894e+23
    7.7105749531e+23
    7.7112870128e+23
    7.7124395728e+23
    7.7140218563e+23
    7.7160275056e+23
    7.7184654145e+23
    7.7213788164e+23
    7.7248842622e+23
    7.7292712400e+23
    7.7353542664e+23
    2.6222744866e+03
    2.6205492795e+03
    2.6187038285e+03
    2.6167249103e+03
    2.6145971453e+03
    2.6123032584e+03
    2.6098220125e+03
    2.6071343771e+03
    2.6042108672e+03
    2.6010230397e+03
    2.5975354760e+03
    2.5937059403e+03
    2.5894869513e+03
    2.5848218361e+03
    2.5796415357e+03
    2.5738638563e+03
    2.5673879298e+03
    2.5600941359e+03
    2.5518280482e+03
    2.5423988344e+03
    2.5315596697e+03
    2.5189862283e+03
    2.5042376232e+03
    2.4866972511e+03
    2.4654657106e+03
    2.4392018784e+03
    2.4059243240e+03
    2.3629741725e+03
    2.3077081640e+03
    2.2393464002e+03
    2.1601264689e+03
    2.0729421828e+03
    1.9778979237e+03
    1.8718711288e+03
    1.7506329585e+03
    1.6121754702e+03
    1.4605005967e+03
    1.3068438350e+03
    1.1651376147e+03
    1.0451703313e+03
    9.4990577032e+02
    8.7735995850e+02
    8.2348448339e+02
    7.8403803027e+02
    7.5537531419e+02
    7.3462787712e+02
    7.1963598078e+02
    7.0881031312e+02
    7.0099510094e+02
    6.9535452914e+02
    6.9128562448e+02
    6.8835330577e+02
    6.8624321850e+02
    6.8472773708e+02
    6.8364147726e+02
    6.8286402453e+02
    6.8230723965e+02
    6.8190658560e+02
    6.8161444579e+02
    6.8139580588e+02
    6.8122493181e+02
    6.8108301312e+02
    6.8095653169e+02
    6.8083605612e+02
    6.8071522672e+02
    6.8059019826e+02
    6.8045908466e+02
    6.8032153089e+02
    6.8017833816e+02
    6.8003108406e+02
    6.7988189328e+02
    6.7973296572e+02
    6.7958611519e+02
    6.7944232767e+02
    6.7930106179e+02
    6.7915923148e+02
    6.7900975485e+02
    6.7883833121e+02
    6.7861641062e+02
    6.7827778303e+02
   -5.6783381369e-11
   -9.9166389138e-11
   -4.6263016882e-11
   -3.1296577143e-11
   -2.2368340080e-11
   -1.2323949337e-11
   -1.2068216485e-10
   -6.3381266827e-11
   -6.3531903526e-11
   -9.8894139813e-12
    3.4260918223e-11
   -3.3350404563e-10
   -1.2479845200e-10
   -1.0123462324e-10
   -1.2176301118e-10
   -2.2373736155e-10
   -2.4280509225e-10
   -4.8994684932e-10
   -5.1411446526e-10
   -6.7208895385e-10
   -8.2075678985e-10
   -9.5389750395e-10
   -1.9863026880e-09
   -1.4398306263e-09
   -1.4882970636e-09
   -1.9088504562e-09
   -2.4422720454e-09
   -5.2610095838e-09
   -6.1441382189e-09
   -6.2742236846e-09
   -4.5985084621e-09
   -6.3383199663e-09
   -8.1002567918e-09
   -4.8158583376e-09
   -4.3965652178e-09
   -3.5474222012e-09
   -7.6633170059e-10
    6.6698947940e-09
   -3.5016911325e-08
   -9.9060459707e-09
   -2.0430542331e-07
   -2.5502950413e-07
   -2.1929566509e-07
   -2.7814162963e-07
    1.4018396873e-08
    4.4889879642e-08
   -1.9831132161e-07
   -4.5114574178e-08
   -1.8819388518e-07
   -1.3465920082e-07
   -5.0159793844e-08
    1.1953138694e-08
    1.7718060086e-08
    1.5416465218e-07
    1.2206151478e-07
    1.7734624829e-07
    8.1529895917e-08
    7.1197769239e-08
    1.0364826769e-08
    1.1007894463e-07
    8.2547426355e-08
    7.8095381331e-08
    3.7660801625e-08
    1.5303727754e-08
    6.4305203927e-09
    3.2910187852e-10
   -1.0894739115e-08
    2.0831283999e-08
   -4.6843933721e-08
   -7.9992764760e-08
    1.3636286170e-08
   -1.1706908094e-08
   -1.5106356974e-09
   -2.6311799075e-09
   -1.7456287874e-08
    1.9795902440e-08
    3.6753934426e-08
    8.2338363059e-09
   -1.2745190971e-08
   -1.9158626045e-08
   -1.0681651510e-06
    7.1469643227e-07
    1.9853748490e-06
    1.1692913731e-06
    1.6129258999e-06
    5.3998587461e-06
    1.0324138472e-05
    1.5705925294e-05
    1.7613705702e-05
    1.4877664045e-05
    1.5095771441e-05
    1.3860628827e-05
    1.4615970740e-05
    1.3207857876e-05
    1.2757170367e-05
    1.1801800349e-05
    6.4546444237e-06
    8.5443081009e-06
   -4.1580062040e-07
   -8.6836470695e-06
    4.3633622267e-06
    1.7559811716e-05
    1.4859823404e-05
    1.3675105740e-05
    1.0397626987e-05
    1.3999692123e-05
    1.6111809901e-05
    1.4407249172e-05
    1.3496212325e-05
    1.1131554452e-05
    1.2723688448e-05
    4.5716598214e-05
    3.5684154837e-05
    9.2704769352e-06
    5.1906601095e-06
    3.4354799751e-06
   -6.8434061393e-08
   -4.8183286977e-06
   -2.6182667221e-06
   -6.2585733743e-06
   -1.1593335231e-05
   -1.0832442927e-06
   -6.2220345418e-07
   -1.2765424305e-07
   -1.2240364897e-07
    8.1245031792e-06
    2.7363491672e-06
    1.2827723251e-06
   -6.5851805533e-07
   -2.8639715093e-07
    4.0038290068e-07
    7.0327145535e-07
    1.9346898499e-07
    2.5707772737e-06
    2.6640411170e-06
    1.4505421001e-06
    1.5530042565e-06
    1.7482390732e-06
    8.0180875663e-06
    2.2291831000e-05
    6.4366585999e-06
    2.5785690937e-06
    1.2918108949e-06
    6.2831773164e-07
    5.9304318388e-07
    3.5504706532e-06
    1.0400099462e-07
    2.3023800925e-07
    1.1472493330e-07
    5.4742021982e-08
    3.4086241624e-08
    2.2472727343e-08
    1.2422515341e-08
    5.4341783001e-09
   -1.9850717919e-08
    4.5847187528e-09
   -8.0419157048e-09
    2.8191734538e-09
    7.8561513850e-09
    3.4466475980e-08
    7.8355155224e+02
    8.1527536855e+02
    8.4926535091e+02
    8.8576984067e+02
    9.2508255940e+02
    9.6751911298e+02
    1.0134898558e+03
    1.0632833821e+03
    1.1174885394e+03
    1.1766003039e+03
    1.2412661160e+03
    1.3122797957e+03
    1.3904706032e+03
    1.4768743589e+03
    1.5727550497e+03
    1.6796046115e+03
    1.7992803189e+03
    1.9338923535e+03
    2.0863024686e+03
    2.2599414095e+03
    2.4592768870e+03
    2.6901482374e+03
    2.9604905588e+03
    3.2812929684e+03
    3.6685800613e+03
    4.1463459428e+03
    4.7509216671e+03
    5.5346233041e+03
    6.5607491873e+03
    7.8795939346e+03
    9.5031096617e+03
    1.1424352047e+04
    1.3669297267e+04
    1.6323422960e+04
    1.9522330867e+04
    2.3411760068e+04
    2.8064639764e+04
    3.3376179707e+04
    3.9030006344e+04
    4.4596886326e+04
    4.9692081736e+04
    5.4076875550e+04
    5.7670900590e+04
    6.0509967199e+04
    6.2692508057e+04
    6.4337803613e+04
    6.5560998936e+04
    6.6461580572e+04
    6.7120159206e+04
    6.7599507202e+04
    6.7947249135e+04
    6.8198920921e+04
    6.8380746039e+04
    6.8511946594e+04
    6.8606537341e+04
    6.8674754496e+04
    6.8724000465e+04
    6.8759684114e+04
    6.8785722232e+04
    6.8804962787e+04
    6.8819470984e+04
    6.8830735442e+04
    6.8839822776e+04
    6.8847498303e+04
    6.8854275616e+04
    6.8860497609e+04
    6.8866374435e+04
    6.8872013721e+04
    6.8877447181e+04
    6.8882649625e+04
    6.8887576480e+04
    6.8892151924e+04
    6.8896302161e+04
    6.8899973631e+04
    6.8903148372e+04
    6.8905863303e+04
    6.8908239360e+04
    6.8910497399e+04
    6.8913030779e+04
    6.8916639873e+04
    2.8315597229e+02
    2.9442341739e+02
    3.0647933137e+02
    3.1940802638e+02
    3.3330912922e+02
    3.4828891044e+02
    3.6448598060e+02
    3.8199364383e+02
    4.0101014727e+02
    4.2169714827e+02
    4.4426710213e+02
    4.6897949483e+02
    4.9610041053e+02
    5.2596127670e+02
    5.5896350249e+02
    5.9557502609e+02
    6.3637325421e+02
    6.8199914577e+02
    7.3332011498e+02
    7.9135130924e+02
    8.5739371907e+02
    9.3311141687e+02
    1.0207162983e+03
    1.1231843274e+03
    1.2447252054e+03
    1.3913885133e+03
    1.5718185881e+03
    1.7973153749e+03
    2.0789996690e+03
    2.4204448424e+03
    2.8124636143e+03
    3.2400567043e+03
    3.6927822389e+03
    4.1644938904e+03
    4.6450153372e+03
    5.1117059679e+03
    5.5287827797e+03
    5.8614974495e+03
    6.0964275001e+03
    6.2457181042e+03
    6.3335440021e+03
    6.3825242641e+03
    6.4087020871e+03
    6.4220468016e+03
    6.4283845262e+03
    6.4310366062e+03