TITLE = "VolumeData"
VARIABLES = "x" "y" "z"  "n"  "ux"  "uy"  "uz"  "p"  "T"  "rank" 
ZONE T= my_zone, SolutionTime = 0.0, DATAPACKING=Block, ZONETYPE=FEBRICK Nodes= 324 Elements= 80 VarLocation=([4-10]=CellCentered)   -1.3490906624e-04
   -1.3153633958e-04
   -1.3490906624e-04
   -1.3153633958e-04
   -1.3490906624e-04
   -1.3153633958e-04
   -1.3490906624e-04
   -1.3153633958e-04
   -1.2816361293e-04
   -1.2816361293e-04
   -1.2816361293e-04
   -1.2816361293e-04
   -1.2479088627e-04
   -1.2479088627e-04
   -1.2479088627e-04
   -1.2479088627e-04
   -1.2141815961e-04
   -1.2141815961e-04
   -1.2141815961e-04
   -1.2141815961e-04
   -1.1804543296e-04
   -1.1804543296e-04
   -1.1804543296e-04
   -1.1804543296e-04
   -1.1467270630e-04
   -1.1467270630e-04
   -1.1467270630e-04
   -1.1467270630e-04
   -1.1129997965e-04
   -1.1129997965e-04
   -1.1129997965e-04
   -1.1129997965e-04
   -1.0792725299e-04
   -1.0792725299e-04
   -1.0792725299e-04
   -1.0792725299e-04
   -1.0455452633e-04
   -1.0455452633e-04
   -1.0455452633e-04
   -1.0455452633e-04
   -1.0118179968e-04
   -1.0118179968e-04
   -1.0118179968e-04
   -1.0118179968e-04
   -9.7809073022e-05
   -9.7809073022e-05
   -9.7809073022e-05
   -9.7809073022e-05
   -9.4436346366e-05
   -9.4436346366e-05
   -9.4436346366e-05
   -9.4436346366e-05
   -9.1063619710e-05
   -9.1063619710e-05
   -9.1063619710e-05
   -9.1063619710e-05
   -8.7690893054e-05
   -8.7690893054e-05
   -8.7690893054e-05
   -8.7690893054e-05
   -8.4318166398e-05
   -8.4318166398e-05
   -8.4318166398e-05
   -8.4318166398e-05
   -8.0945439743e-05
   -8.0945439743e-05
   -8.0945439743e-05
   -8.0945439743e-05
   -7.7572713087e-05
   -7.7572713087e-05
   -7.7572713087e-05
   -7.7572713087e-05
   -7.4199986431e-05
   -7.4199986431e-05
   -7.4199986431e-05
   -7.4199986431e-05
   -7.0827259775e-05
   -7.0827259775e-05
   -7.0827259775e-05
   -7.0827259775e-05
   -6.7454533119e-05
   -6.7454533119e-05
   -6.7454533119e-05
   -6.7454533119e-05
   -6.4081806463e-05
   -6.4081806463e-05
   -6.4081806463e-05
   -6.4081806463e-05
   -6.0709079807e-05
   -6.0709079807e-05
   -6.0709079807e-05
   -6.0709079807e-05
   -5.7336353151e-05
   -5.7336353151e-05
   -5.7336353151e-05
   -5.7336353151e-05
   -5.3963626495e-05
   -5.3963626495e-05
   -5.3963626495e-05
   -5.3963626495e-05
   -5.0590899839e-05
   -5.0590899839e-05
   -5.0590899839e-05
   -5.0590899839e-05
   -4.7218173183e-05
   -4.7218173183e-05
   -4.7218173183e-05
   -4.7218173183e-05
   -4.3845446527e-05
   -4.3845446527e-05
   -4.3845446527e-05
   -4.3845446527e-05
   -4.0472719871e-05
   -4.0472719871e-05
   -4.0472719871e-05
   -4.0472719871e-05
   -3.7099993215e-05
   -3.7099993215e-05
   -3.7099993215e-05
   -3.7099993215e-05
   -3.3727266559e-05
   -3.3727266559e-05
   -3.3727266559e-05
   -3.3727266559e-05
   -3.0354539903e-05
   -3.0354539903e-05
   -3.0354539903e-05
   -3.0354539903e-05
   -2.6981813248e-05
   -2.6981813248e-05
   -2.6981813248e-05
   -2.6981813248e-05
   -2.3609086592e-05
   -2.3609086592e-05
   -2.3609086592e-05
   -2.3609086592e-05
   -2.0236359936e-05
   -2.0236359936e-05
   -2.0236359936e-05
   -2.0236359936e-05
   -1.6863633280e-05
   -1.6863633280e-05
   -1.6863633280e-05
   -1.6863633280e-05
   -1.3490906624e-05
   -1.3490906624e-05
   -1.3490906624e-05
   -1.3490906624e-05
   -1.0118179968e-05
   -1.0118179968e-05
   -1.0118179968e-05
   -1.0118179968e-05
   -6.7454533119e-06
   -6.7454533119e-06
   -6.7454533119e-06
   -6.7454533119e-06
   -3.3727266559e-06
   -3.3727266559e-06
   -3.3727266559e-06
   -3.3727266559e-06
    0.0000000000e+00
    0.0000000000e+00
    0.0000000000e+00
    0.0000000000e+00
    3.3727266559e-06
    3.3727266559e-06
    3.3727266559e-06
    3.3727266559e-06
    6.7454533119e-06
    6.7454533119e-06
    6.7454533119e-06
    6.7454533119e-06
    1.0118179968e-05
    1.0118179968e-05
    1.0118179968e-05
    1.0118179968e-05
    1.3490906624e-05
    1.3490906624e-05
    1.3490906624e-05
    1.3490906624e-05
    1.6863633280e-05
    1.6863633280e-05
    1.6863633280e-05
    1.6863633280e-05
    2.0236359936e-05
    2.0236359936e-05
    2.0236359936e-05
    2.0236359936e-05
    2.3609086592e-05
    2.3609086592e-05
    2.3609086592e-05
    2.3609086592e-05
    2.6981813248e-05
    2.6981813248e-05
    2.6981813248e-05
    2.6981813248e-05
    3.0354539903e-05
    3.0354539903e-05
    3.0354539903e-05
    3.0354539903e-05
    3.3727266559e-05
    3.3727266559e-05
    3.3727266559e-05
    3.3727266559e-05
    3.7099993215e-05
    3.7099993215e-05
    3.7099993215e-05
    3.7099993215e-05
    4.0472719871e-05
    4.0472719871e-05
    4.0472719871e-05
    4.0472719871e-05
    4.3845446527e-05
    4.3845446527e-05
    4.3845446527e-05
    4.3845446527e-05
    4.7218173183e-05
    4.7218173183e-05
    4.7218173183e-05
    4.7218173183e-05
    5.0590899839e-05
    5.0590899839e-05
    5.0590899839e-05
    5.0590899839e-05
    5.3963626495e-05
    5.3963626495e-05
    5.3963626495e-05
    5.3963626495e-05
    5.7336353151e-05
    5.7336353151e-05
    5.7336353151e-05
    5.7336353151e-05
    6.0709079807e-05
    6.0709079807e-05
    6.0709079807e-05
    6.0709079807e-05
    6.4081806463e-05
    6.4081806463e-05
    6.4081806463e-05
    6.4081806463e-05
    6.7454533119e-05
    6.7454533119e-05
    6.7454533119e-05
    6.7454533119e-05
    7.0827259775e-05
    7.0827259775e-05
    7.0827259775e-05
    7.0827259775e-05
    7.4199986431e-05
    7.4199986431e-05
    7.4199986431e-05
    7.4199986431e-05
    7.7572713087e-05
    7.7572713087e-05
    7.7572713087e-05
    7.7572713087e-05
    8.0945439743e-05
    8.0945439743e-05
    8.0945439743e-05
    8.0945439743e-05
    8.4318166398e-05
    8.4318166398e-05
    8.4318166398e-05
    8.4318166398e-05
    8.7690893054e-05
    8.7690893054e-05
    8.7690893054e-05
    8.7690893054e-05
    9.1063619710e-05
    9.1063619710e-05
    9.1063619710e-05
    9.1063619710e-05
    9.4436346366e-05
    9.4436346366e-05
    9.4436346366e-05
    9.4436346366e-05
    9.7809073022e-05
    9.7809073022e-05
    9.7809073022e-05
    9.7809073022e-05
    1.0118179968e-04
    1.0118179968e-04
    1.0118179968e-04
    1.0118179968e-04
    1.0455452633e-04
    1.0455452633e-04
    1.0455452633e-04
    1.0455452633e-04
    1.0792725299e-04
    1.0792725299e-04
    1.0792725299e-04
    1.0792725299e-04
    1.1129997965e-04
    1.1129997965e-04
    1.1129997965e-04
    1.1129997965e-04
    1.1467270630e-04
    1.1467270630e-04
    1.1467270630e-04
    1.1467270630e-04
    1.1804543296e-04
    1.1804543296e-04
    1.1804543296e-04
    1.1804543296e-04
    1.2141815961e-04
    1.2141815961e-04
    1.2141815961e-04
    1.2141815961e-04
    1.2479088627e-04
    1.2479088627e-04
    1.2479088627e-04
    1.2479088627e-04
    1.2816361293e-04
    1.2816361293e-04
    1.2816361293e-04
    1.2816361293e-04
    1.3153633958e-04
    1.3153633958e-04
    1.3153633958e-04
    1.3153633958e-04
    1.3490906624e-04
    1.3490906624e-04
    1.3490906624e-04
    1.3490906624e-04
    0.0000000000e+00
    0.0000000000e+00
    1.3490906624e-05
    1.3490906624e-05
    0.0000000000e+00
    0.0000000000e+00
    1.3490906624e-05
    1.3490906624e-05
    0.0000000000e+00
    1.3490906624e-05
    0.0000000000e+00
    1.3490906624e-05
    0.0000000000e+00
    1.3490906624e-05
    0.0000000000e+00
    1.3490906624e-05
    0.0000000000e+00
    1.3490906624e-05
    0.0000000000e+00
    1.3490906624e-05
    0.0000000000e+00
    1.3490906624e-05
    0.0000000000e+00
    1.3490906624e-05
    0.0000000000e+00
    1.3490906624e-05
    0.0000000000e+00
    1.3490906624e-05
    0.0000000000e+00
    1.3490906624e-05
    0.0000000000e+00
    1.3490906624e-05
    0.0000000000e+00
    1.3490906624e-05
    0.0000000000e+00
    1.3490906624e-05
    0.0000000000e+00
    1.3490906624e-05
    0.0000000000e+00
    1.3490906624e-05
    0.0000000000e+00
    1.3490906624e-05
    0.0000000000e+00
    1.3490906624e-05
    0.0000000000e+00
    1.3490906624e-05
    0.0000000000e+00
    1.3490906624e-05
    0.0000000000e+00
    1.3490906624e-05
    0.0000000000e+00
    1.3490906624e-05
    0.0000000000e+00
    1.3490906624e-05
    0.0000000000e+00
    1.3490906624e-05
    0.0000000000e+00
    1.3490906624e-05
    0.0000000000e+00
    1.3490906624e-05
    0.0000000000e+00
    1.3490906624e-05
    0.0000000000e+00
    1.3490906624e-05
    0.0000000000e+00
    1.3490906624e-05
    0.0000000000e+00
    1.3490906624e-05
    0.0000000000e+00
    1.3490906624e-05
    0.0000000000e+00
    1.3490906624e-05
    0.0000000000e+00
    1.3490906624e-05
    0.0000000000e+00
    1.3490906624e-05
    0.0000000000e+00
    1.3490906624e-05
    0.0000000000e+00
    1.3490906624e-05
    0.0000000000e+00
    1.3490906624e-05
    0.0000000000e+00
    1.3490906624e-05
    0.0000000000e+00
    1.3490906624e-05
    0.0000000000e+00
    1.3490906624e-05
    0.0000000000e+00
    1.3490906624e-05
    0.0000000000e+00
    1.3490906624e-05
    0.0000000000e+00
    1.3490906624e-05
    0.0000000000e+00
    1.3490906624e-05
    0.0000000000e+00
    1.3490906624e-05
    0.0000000000e+00
    1.3490906624e-05
    0.0000000000e+00
    1.3490906624e-05
    0.0000000000e+00
    1.3490906624e-05
    0.0000000000e+00
    1.3490906624e-05
    0.0000000000e+00
    1.3490906624e-05
    0.0000000000e+00
    1.3490906624e-05
    0.0000000000e+00
    1.3490906624e-05
    0.0000000000e+00
    1.3490906624e-05
    0.0000000000e+00
    1.3490906624e-05
    0.0000000000e+00
    1.3490906624e-05
    0.0000000000e+00
    1.3490906624e-05
    0.0000000000e+00
    1.3490906624e-05
    0.0000000000e+00
    1.3490906624e-05
    0.0000000000e+00
    1.3490906624e-05
    0.0000000000e+00
    1.3490906624e-05
    0.0000000000e+00
    1.3490906624e-05
    0.0000000000e+00
    1.3490906624e-05
    0.0000000000e+00
    1.3490906624e-05
    0.0000000000e+00
    1.3490906624e-05
    0.0000000000e+00
    1.3490906624e-05
    0.0000000000e+00
    1.3490906624e-05
    0.0000000000e+00
    1.3490906624e-05
    0.0000000000e+00
    1.3490906624e-05
    0.0000000000e+00
    1.3490906624e-05
    0.0000000000e+00
    1.3490906624e-05
    0.0000000000e+00
    1.3490906624e-05
    0.0000000000e+00
    1.3490906624e-05
    0.0000000000e+00
    1.3490906624e-05
    0.0000000000e+00
    1.3490906624e-05
    0.0000000000e+00
    1.3490906624e-05
    0.0000000000e+00
    1.3490906624e-05
    0.0000000000e+00
    1.3490906624e-05
    0.0000000000e+00
    1.3490906624e-05
    0.0000000000e+00
    1.3490906624e-05
    0.0000000000e+00
    1.3490906624e-05
    0.0000000000e+00
    1.3490906624e-05
    0.0000000000e+00
    1.3490906624e-05
    0.0000000000e+00
    1.3490906624e-05
    0.0000000000e+00
    1.3490906624e-05
    0.0000000000e+00
    1.3490906624e-05
    0.0000000000e+00
    1.3490906624e-05
    0.0000000000e+00
    1.3490906624e-05
    0.0000000000e+00
    1.3490906624e-05
    0.0000000000e+00
    1.3490906624e-05
    0.0000000000e+00
    1.3490906624e-05
    0.0000000000e+00
    1.3490906624e-05
    0.0000000000e+00
    1.3490906624e-05
    0.0000000000e+00
    1.3490906624e-05
    0.0000000000e+00
    1.3490906624e-05
    0.0000000000e+00
    1.3490906624e-05
    0.0000000000e+00
    1.3490906624e-05
    0.0000000000e+00
    1.3490906624e-05
    0.0000000000e+00
    1.3490906624e-05
    0.0000000000e+00
    1.3490906624e-05
    0.0000000000e+00
    1.3490906624e-05
    0.0000000000e+00
    1.3490906624e-05
    0.0000000000e+00
    1.3490906624e-05
    0.0000000000e+00
    1.3490906624e-05
    0.0000000000e+00
    1.3490906624e-05
    0.0000000000e+00
    1.3490906624e-05
    0.0000000000e+00
    1.3490906624e-05
    0.0000000000e+00
    1.3490906624e-05
    0.0000000000e+00
    1.3490906624e-05
    0.0000000000e+00
    1.3490906624e-05
    0.0000000000e+00
    1.3490906624e-05
    0.0000000000e+00
    1.3490906624e-05
    0.0000000000e+00
    1.3490906624e-05
    0.0000000000e+00
    1.3490906624e-05
    0.0000000000e+00
    1.3490906624e-05
    0.0000000000e+00
    1.3490906624e-05
    0.0000000000e+00
    1.3490906624e-05
    0.0000000000e+00
    1.3490906624e-05
    0.0000000000e+00
    1.3490906624e-05
    0.0000000000e+00
    1.3490906624e-05
    0.0000000000e+00
    1.3490906624e-05
    0.0000000000e+00
    1.3490906624e-05
    0.0000000000e+00
    1.3490906624e-05
    0.0000000000e+00
    1.3490906624e-05
    0.0000000000e+00
    1.3490906624e-05
    0.0000000000e+00
    1.3490906624e-05
    0.0000000000e+00
    1.3490906624e-05
    0.0000000000e+00
    1.3490906624e-05
    0.0000000000e+00
    1.3490906624e-05
    0.0000000000e+00
    1.3490906624e-05
    0.0000000000e+00
    1.3490906624e-05
    0.0000000000e+00
    1.3490906624e-05
    0.0000000000e+00
    1.3490906624e-05
    0.0000000000e+00
    1.3490906624e-05
    0.0000000000e+00
    1.3490906624e-05
    0.0000000000e+00
    1.3490906624e-05
    0.0000000000e+00
    1.3490906624e-05
    0.0000000000e+00
    1.3490906624e-05
    0.0000000000e+00
    1.3490906624e-05
    0.0000000000e+00
    1.3490906624e-05
    0.0000000000e+00
    1.3490906624e-05
    0.0000000000e+00
    1.3490906624e-05
    0.0000000000e+00
    1.3490906624e-05
    0.0000000000e+00
    1.3490906624e-05
    0.0000000000e+00
    1.3490906624e-05
    0.0000000000e+00
    1.3490906624e-05
    0.0000000000e+00
    1.3490906624e-05
    0.0000000000e+00
    1.3490906624e-05
    0.0000000000e+00
    1.3490906624e-05
    0.0000000000e+00
    1.3490906624e-05
    0.0000000000e+00
    1.3490906624e-05
    0.0000000000e+00
    1.3490906624e-05
    0.0000000000e+00
    1.3490906624e-05
    0.0000000000e+00
    1.3490906624e-05
    0.0000000000e+00
    1.3490906624e-05
    0.0000000000e+00
    1.3490906624e-05
    0.0000000000e+00
    1.3490906624e-05
    0.0000000000e+00
    1.3490906624e-05
    0.0000000000e+00
    1.3490906624e-05
    0.0000000000e+00
    0.0000000000e+00
    0.0000000000e+00
    0.0000000000e+00
    1.3490906624e-05
    1.3490906624e-05
    1.3490906624e-05
    1.3490906624e-05
    0.0000000000e+00
    0.0000000000e+00
    1.3490906624e-05
    1.3490906624e-05
    0.0000000000e+00
    0.0000000000e+00
    1.3490906624e-05
    1.3490906624e-05
    0.0000000000e+00
    0.0000000000e+00
    1.3490906624e-05
    1.3490906624e-05
    0.0000000000e+00
    0.0000000000e+00
    1.3490906624e-05
    1.3490906624e-05
    0.0000000000e+00
    0.0000000000e+00
    1.3490906624e-05
    1.3490906624e-05
    0.0000000000e+00
    0.0000000000e+00
    1.3490906624e-05
    1.3490906624e-05
    0.0000000000e+00
    0.0000000000e+00
    1.3490906624e-05
    1.3490906624e-05
    0.0000000000e+00
    0.0000000000e+00
    1.3490906624e-05
    1.3490906624e-05
    0.0000000000e+00
    0.0000000000e+00
    1.3490906624e-05
    1.3490906624e-05
    0.0000000000e+00
    0.0000000000e+00
    1.3490906624e-05
    1.3490906624e-05
    0.0000000000e+00
    0.0000000000e+00
    1.3490906624e-05
    1.3490906624e-05
    0.0000000000e+00
    0.0000000000e+00
    1.3490906624e-05
    1.3490906624e-05
    0.0000000000e+00
    0.0000000000e+00
    1.3490906624e-05
    1.3490906624e-05
    0.0000000000e+00
    0.0000000000e+00
    1.3490906624e-05
    1.3490906624e-05
    0.0000000000e+00
    0.0000000000e+00
    1.3490906624e-05
    1.3490906624e-05
    0.0000000000e+00
    0.0000000000e+00
    1.3490906624e-05
    1.3490906624e-05
    0.0000000000e+00
    0.0000000000e+00
    1.3490906624e-05
    1.3490906624e-05
    0.0000000000e+00
    0.0000000000e+00
    1.3490906624e-05
    1.3490906624e-05
    0.0000000000e+00
    0.0000000000e+00
    1.3490906624e-05
    1.3490906624e-05
    0.0000000000e+00
    0.0000000000e+00
    1.3490906624e-05
    1.3490906624e-05
    0.0000000000e+00
    0.0000000000e+00
    1.3490906624e-05
    1.3490906624e-05
    0.0000000000e+00
    0.0000000000e+00
    1.3490906624e-05
    1.3490906624e-05
    0.0000000000e+00
    0.0000000000e+00
    1.3490906624e-05
    1.3490906624e-05
    0.0000000000e+00
    0.0000000000e+00
    1.3490906624e-05
    1.3490906624e-05
    0.0000000000e+00
    0.0000000000e+00
    1.3490906624e-05
    1.3490906624e-05
    0.0000000000e+00
    0.0000000000e+00
    1.3490906624e-05
    1.3490906624e-05
    0.0000000000e+00
    0.0000000000e+00
    1.3490906624e-05
    1.3490906624e-05
    0.0000000000e+00
    0.0000000000e+00
    1.3490906624e-05
    1.3490906624e-05
    0.0000000000e+00
    0.0000000000e+00
    1.3490906624e-05
    1.3490906624e-05
    0.0000000000e+00
    0.0000000000e+00
    1.3490906624e-05
    1.3490906624e-05
    0.0000000000e+00
    0.0000000000e+00
    1.3490906624e-05
    1.3490906624e-05
    0.0000000000e+00
    0.0000000000e+00
    1.3490906624e-05
    1.3490906624e-05
    0.0000000000e+00
    0.0000000000e+00
    1.3490906624e-05
    1.3490906624e-05
    0.0000000000e+00
    0.0000000000e+00
    1.3490906624e-05
    1.3490906624e-05
    0.0000000000e+00
    0.0000000000e+00
    1.3490906624e-05
    1.3490906624e-05
    0.0000000000e+00
    0.0000000000e+00
    1.3490906624e-05
    1.3490906624e-05
    0.0000000000e+00
    0.0000000000e+00
    1.3490906624e-05
    1.3490906624e-05
    0.0000000000e+00
    0.0000000000e+00
    1.3490906624e-05
    1.3490906624e-05
    0.0000000000e+00
    0.0000000000e+00
    1.3490906624e-05
    1.3490906624e-05
    0.0000000000e+00
    0.0000000000e+00
    1.3490906624e-05
    1.3490906624e-05
    0.0000000000e+00
    0.0000000000e+00
    1.3490906624e-05
    1.3490906624e-05
    0.0000000000e+00
    0.0000000000e+00
    1.3490906624e-05
    1.3490906624e-05
    0.0000000000e+00
    0.0000000000e+00
    1.3490906624e-05
    1.3490906624e-05
    0.0000000000e+00
    0.0000000000e+00
    1.3490906624e-05
    1.3490906624e-05
    0.0000000000e+00
    0.0000000000e+00
    1.3490906624e-05
    1.3490906624e-05
    0.0000000000e+00
    0.0000000000e+00
    1.3490906624e-05
    1.3490906624e-05
    0.0000000000e+00
    0.0000000000e+00
    1.3490906624e-05
    1.3490906624e-05
    0.0000000000e+00
    0.0000000000e+00
    1.3490906624e-05
    1.3490906624e-05
    0.0000000000e+00
    0.0000000000e+00
    1.3490906624e-05
    1.3490906624e-05
    0.0000000000e+00
    0.0000000000e+00
    1.3490906624e-05
    1.3490906624e-05
    0.0000000000e+00
    0.0000000000e+00
    1.3490906624e-05
    1.3490906624e-05
    0.0000000000e+00
    0.0000000000e+00
    1.3490906624e-05
    1.3490906624e-05
    0.0000000000e+00
    0.0000000000e+00
    1.3490906624e-05
    1.3490906624e-05
    0.0000000000e+00
    0.0000000000e+00
    1.3490906624e-05
    1.3490906624e-05
    0.0000000000e+00
    0.0000000000e+00
    1.3490906624e-05
    1.3490906624e-05
    0.0000000000e+00
    0.0000000000e+00
    1.3490906624e-05
    1.3490906624e-05
    0.0000000000e+00
    0.0000000000e+00
    1.3490906624e-05
    1.3490906624e-05
    0.0000000000e+00
    0.0000000000e+00
    1.3490906624e-05
    1.3490906624e-05
    0.0000000000e+00
    0.0000000000e+00
    1.3490906624e-05
    1.3490906624e-05
    0.0000000000e+00
    0.0000000000e+00
    1.3490906624e-05
    1.3490906624e-05
    0.0000000000e+00
    0.0000000000e+00
    1.3490906624e-05
    1.3490906624e-05
    0.0000000000e+00
    0.0000000000e+00
    1.3490906624e-05
    1.3490906624e-05
    0.0000000000e+00
    0.0000000000e+00
    1.3490906624e-05
    1.3490906624e-05
    0.0000000000e+00
    0.0000000000e+00
    1.3490906624e-05
    1.3490906624e-05
    0.0000000000e+00
    0.0000000000e+00
    1.3490906624e-05
    1.3490906624e-05
    0.0000000000e+00
    0.0000000000e+00
    1.3490906624e-05
    1.3490906624e-05
    0.0000000000e+00
    0.0000000000e+00
    1.3490906624e-05
    1.3490906624e-05
    0.0000000000e+00
    0.0000000000e+00
    1.3490906624e-05
    1.3490906624e-05
    0.0000000000e+00
    0.0000000000e+00
    1.3490906624e-05
    1.3490906624e-05
    0.0000000000e+00
    0.0000000000e+00
    1.3490906624e-05
    1.3490906624e-05
    0.0000000000e+00
    0.0000000000e+00
    1.3490906624e-05
    1.3490906624e-05
    0.0000000000e+00
    0.0000000000e+00
    1.3490906624e-05
    1.3490906624e-05
    0.0000000000e+00
    0.0000000000e+00
    1.3490906624e-05
    1.3490906624e-05
    0.0000000000e+00
    0.0000000000e+00
    1.3490906624e-05
    1.3490906624e-05
    0.0000000000e+00
    0.0000000000e+00
    1.3490906624e-05
    1.3490906624e-05
    0.0000000000e+00
    0.0000000000e+00
    1.3490906624e-05
    1.3490906624e-05
    0.0000000000e+00
    0.0000000000e+00
    1.3490906624e-05
    1.3490906624e-05
    0.0000000000e+00
    0.0000000000e+00
    1.3490906624e-05
    1.3490906624e-05
    0.0000000000e+00
    0.0000000000e+00
    1.3490906624e-05
    1.3490906624e-05
    2.0038646773e+23
    2.0050811088e+23
    2.0063796200e+23
    2.0077705815e+23
    2.0092647100e+23
    2.0108744588e+23
    2.0126137939e+23
    2.0144984711e+23
    2.0165462893e+23
    2.0187784429e+23
    2.0212195618e+23
    2.0238990942e+23
    2.0268489712e+23
    2.0301086284e+23
    2.0337255149e+23
    2.0377563572e+23
    2.0422696427e+23
    2.0473494008e+23
    2.0530993608e+23
    2.0596505513e+23
    2.0671681181e+23
    2.0758678476e+23
    2.0860366295e+23
    2.0980683048e+23
    2.1125199241e+23
    2.1302160841e+23
    2.1524173690e+23
    2.1810807316e+23
    2.2191235546e+23
    2.2702777790e+23
    2.3377933039e+23
    2.4226251673e+23
    2.5243486577e+23
    2.6452642276e+23
    2.7935668862e+23
    2.9840574288e+23
    3.2368404730e+23
    3.5718072580e+23
    3.9968072108e+23
    4.4957548115e+23
    5.0294919072e+23
    5.5512279799e+23
    6.0234878623e+23
    6.4257938525e+23
    6.7532170293e+23
    7.0109796308e+23
    7.2091583472e+23
    7.3590357256e+23
    7.4711191256e+23
    7.5543192573e+23
    7.6157909539e+23
    7.6610855812e+23
    7.6944166552e+23
    7.7189370129e+23
    7.7369837354e+23
    7.7502794910e+23
    7.7600888445e+23
    7.7673388202e+23
    7.7727078467e+23
    7.7766927542e+23
    7.7796573830e+23
    7.7818683413e+23
    7.7835211614e+23
    7.7847592129e+23
    7.7856874934e+23
    7.7863829933e+23
    7.7869018399e+23
    7.7872845772e+23
    7.7875598730e+23
    7.7877472995e+23
    7.7878585755e+23
    7.7878991934e+23
    7.7878679873e+23
    7.7877573926e+23
    7.7875513346e+23
    7.7872219938e+23
    7.7867235682e+23
    7.7859775699e+23
    7.7848335042e+23
    7.7829240737e+23
    2.6231075090e+03
    2.6215413387e+03
    2.6198687438e+03
    2.6180778644e+03
    2.6161567565e+03
    2.6140902426e+03
    2.6118616143e+03
    2.6094519964e+03
    2.6068399291e+03
    2.6040001086e+03
    2.6009031677e+03
    2.5975130689e+03
    2.5937936392e+03
    2.5896986414e+03
    2.5851724324e+03
    2.5801497675e+03
    2.5745525692e+03
    2.5682861331e+03
    2.5612346013e+03
    2.5532540680e+03
    2.5441651049e+03
    2.5337375752e+03
    2.5216702355e+03
    2.5075568396e+03
    2.4908361646e+03
    2.4706957806e+03
    2.4459315609e+03
    2.4147512767e+03
    2.3746612056e+03
    2.3228940303e+03
    2.2579816616e+03
    2.1814156455e+03
    2.0962717346e+03
    2.0035720171e+03
    1.9009232519e+03
    1.7841258163e+03
    1.6502118014e+03
    1.5012621081e+03
    1.3467500449e+03
    1.2005742148e+03
    1.0741381591e+03
    9.7219539130e+02
    8.9380501150e+02
    8.3524460035e+02
    7.9221330272e+02
    7.6087060660e+02
    7.3813834039e+02
    7.2167722860e+02
    7.0975750571e+02
    7.0111868109e+02
    6.9484866576e+02
    6.9028992840e+02
    6.8696896054e+02
    6.8454459907e+02
    6.8277092594e+02
    6.8147041150e+02
    6.8051457195e+02
    6.7981041862e+02
    6.7929038692e+02
    6.7890535545e+02
    6.7861953409e+02
    6.7840677616e+02
    6.7824798572e+02
    6.7812925456e+02
    6.7804032129e+02
    6.7797370230e+02
    6.7792393880e+02
    6.7788707543e+02
    6.7786029923e+02
    6.7784161373e+02
    6.7782979847e+02
    6.7782423400e+02
    6.7782479404e+02
    6.7783189894e+02
    6.7784673126e+02
    6.7787128731e+02
    6.7790891736e+02
    6.7796530586e+02
    6.7805098668e+02
    6.7819041725e+02
    5.0937581794e-11
    4.9864371390e-11
    1.5029591643e-11
   -4.3045293991e-12
   -2.7014561527e-11
   -3.9137919240e-11
   -3.0061925099e-12
   -9.3972493140e-12
   -1.9636368149e-11
   -6.6140437112e-11
   -1.3613337033e-10
   -1.1045586292e-10
    5.7971255568e-11
   -8.0850227385e-10
   -4.3221607406e-10
   -8.6258474355e-10
   -8.2358000311e-10
   -8.8874226836e-10
   -1.1051978344e-09
   -2.7702721755e-09
   -3.0412849660e-09
   -3.6501039645e-09
   -4.6478734414e-10
    3.7546284016e-09
    2.7533373855e-09
    2.6220416511e-09
   -3.5199548484e-10
    1.1058327803e-09
   -1.3217475761e-09
   -1.9408260954e-09
   -2.1943512617e-09
   -1.5526237361e-09
   -4.8364890832e-09
   -2.4300544477e-09
   -3.0064486662e-10
   -1.8468379732e-09
   -2.8376938279e-09
   -3.2558397534e-09
   -3.8228394728e-09
    2.6999609568e-09
    2.8823559036e-08
    1.1896046935e-07
    1.1528267843e-07
    9.1153916477e-08
    3.0942259432e-08
    3.7173806820e-07
    2.5704951244e-07
   -3.5754259690e-07
    6.9517148714e-08
   -2.7706934115e-07
   -7.1087336803e-09
    2.1562267502e-07
   -1.8757484882e-08
    6.3214773173e-07
    9.1476216997e-08
    3.7129624598e-07
    3.0833479144e-07
   -7.1238580186e-09
    1.1874801681e-08
    1.3023003309e-08
    9.5203518985e-09
   -7.9410578705e-08
    5.2859079908e-08
    4.1901454306e-09
   -1.1968365405e-08
   -2.0822885726e-08
    2.1958985520e-08
   -1.4903898990e-07
   -3.9253316833e-09
    7.7004392828e-09
    2.1395240675e-08
   -8.8484390827e-08
   -5.9986128011e-07
    1.8879301240e-07
    6.5946455285e-08
    3.6515545274e-08
    2.0043497744e-08
    1.7554681367e-08
    9.4071958168e-10
    2.0686068996e-09
   -2.5219444139e-06
   -2.6186275653e-07
    6.5682569058e-07
    3.9295015951e-07
   -5.4473716495e-07
    6.0944479753e-07
    1.0569937944e-06
    1.7737103882e-06
    6.8542913171e-06
    4.6894760272e-06
   -9.1783444842e-07
   -8.1803077269e-06
   -6.1564915140e-06
   -3.0157139835e-05
   -2.1073005001e-05
   -1.6452564152e-05
   -1.3057785566e-05
   -1.1108588373e-05
   -9.9488801884e-06
   -1.0851134513e-05
   -1.7401004514e-05
   -9.3718290340e-06
   -4.6877661987e-06
   -3.2315600224e-06
   -2.4976510956e-06
   -1.8958701544e-06
   -7.2075269980e-07
    1.6847163743e-06
    1.5956496303e-06
    8.3405585817e-07
   -3.2300570057e-06
    3.0379589904e-05
    2.8707879857e-05
    4.5133929633e-05
    2.0026573808e-06
   -1.7581748757e-06
   -2.4123930472e-06
   -2.4283705578e-06
   -3.1854705934e-06
   -3.7481223446e-06
   -6.0767330929e-06
    2.8670587657e-06
   -1.1643518978e-06
   -9.6954535942e-07
   -8.4448704369e-07
   -8.5368451440e-07
   -4.5359327625e-07
   -1.7973705135e-07
   -2.3730745214e-07
   -5.7627601540e-07
   -2.3126177453e-07
   -7.2214956268e-08
   -8.8539967351e-09
   -4.2959032952e-09
   -5.8552434609e-08
   -3.3260918973e-08
   -2.8344870033e-08
   -2.1975373935e-08
   -8.3086698865e-08
   -1.7914223920e-07
   -5.0288462056e-08
   -7.0415012076e-09
   -1.8482492812e-07
    1.1687504094e-06
    8.7809265111e-07
    3.0820245905e-07
    1.7252659997e-07
    1.2136884122e-07
    1.5380552074e-07
    1.7429202742e-07
    8.3737600754e-08
    7.7562114453e-09
   -1.4270789425e-07
   -1.7437197365e-07
   -4.8831777088e-07
   -5.4985910892e-07
   -6.0989407023e-07
   -8.5820984923e-07
   -3.0397618624e-07
   -1.9141852748e-07
    7.6504537928e+02
    7.9390914474e+02
    8.2477506222e+02
    8.5787963928e+02
    8.9343509756e+02
    9.3172886246e+02
    9.7306905850e+02
    1.0177997149e+03
    1.0663048005e+03
    1.1190502527e+03
    1.1765729709e+03
    1.2395616808e+03
    1.3086177664e+03
    1.3845932536e+03
    1.4685184738e+03
    1.5615761615e+03
    1.6651891165e+03
    1.7810788115e+03
    1.9113417499e+03
    2.0586170615e+03
    2.2261283041e+03
    2.4180477103e+03
    2.6398182006e+03
    2.8987617685e+03
    3.2048800033e+03
    3.5726741319e+03
    4.0236340906e+03
    4.5903523666e+03
    5.3207111425e+03
    6.2763010939e+03
    7.5138239889e+03
    9.0560239190e+03
    1.0896545434e+04
    1.3048623925e+04
    1.5581565054e+04
    1.8619842504e+04
    2.2312389341e+04
    2.6762129312e+04
    3.1920619569e+04
    3.7524549731e+04
    4.3160094612e+04
    4.8416795949e+04
    5.3011647791e+04
    5.6823947016e+04
    5.9863281215e+04
    6.2215817767e+04
    6.3998361056e+04
    6.5328799003e+04
    6.6311485155e+04
    6.7032174668e+04
    6.7558255034e+04
    6.7941144643e+04
    6.8219327035e+04
    6.8421256397e+04
    6.8567769367e+04
    6.8674098926e+04
    6.8751274608e+04
    6.8807332601e+04
    6.8848067835e+04
    6.8877685344e+04
    6.8899230472e+04
    6.8914904716e+04
    6.8926307888e+04
    6.8934609908e+04
    6.8940642943e+04
    6.8945016168e+04
    6.8948170655e+04
    6.8950425424e+04
    6.8952007171e+04
    6.8953086432e+04
    6.8953766658e+04
    6.8954140070e+04
    6.8954238344e+04
    6.8954088898e+04
    6.8953698575e+04
    6.8953034395e+04
    6.8952039689e+04
    6.8950606203e+04
    6.8948500195e+04
    6.8945073761e+04
    2.7652583301e+02
    2.8678455737e+02
    2.9774146173e+02
    3.0947756899e+02
    3.2206442488e+02
    3.3559964578e+02
    3.5018708165e+02
    3.6594202376e+02
    3.8299232550e+02
    4.0149286689e+02
    4.2162104196e+02
    4.4360475113e+02
    4.6763641892e+02
    4.9399191029e+02
    5.2300275880e+02
    5.5504451674e+02
    5.9056456462e+02
    6.3009796089e+02
    6.7428776783e+02
    7.2393392352e+02
    7.7999406115e+02
    8.4368837689e+02
    9.1657707670e+02
    1.0007136058e+03
    1.0988233066e+03
    1.2147492756e+03
    1.3539695390e+03
    1.5243727829e+03
    1.7366212126e+03
    2.0023577556e+03
    2.3279401459e+03
    2.7074985899e+03
    3.1264853513e+03
    3.5728316939e+03
    4.0398841003e+03
    4.5194514875e+03
    4.9927714538e+03
    5.4268716735e+03
    5.7846223975e+03
    6.0454658843e+03
    6.2154872099e+03
    6.3171892153e+03
    6.3744125441e+03
    6.4050350511e+03
    6.4204684089e+03
    6.4274545048e+03