TITLE = "VolumeData"
VARIABLES = "x" "y" "z"  "n"  "ux"  "uy"  "uz"  "p"  "T"  "rank" 
ZONE T= my_zone, SolutionTime = 0.0, DATAPACKING=Block, ZONETYPE=FEBRICK Nodes= 324 Elements= 80 VarLocation=([4-10]=CellCentered)   -1.3490906624e-04
   -1.3153633958e-04
   -1.3490906624e-04
   -1.3153633958e-04
   -1.3490906624e-04
   -1.3153633958e-04
   -1.3490906624e-04
   -1.3153633958e-04
   -1.2816361293e-04
   -1.2816361293e-04
   -1.2816361293e-04
   -1.2816361293e-04
   -1.2479088627e-04
   -1.2479088627e-04
   -1.2479088627e-04
   -1.2479088627e-04
   -1.2141815961e-04
   -1.2141815961e-04
   -1.2141815961e-04
   -1.2141815961e-04
   -1.1804543296e-04
   -1.1804543296e-04
   -1.1804543296e-04
   -1.1804543296e-04
   -1.1467270630e-04
   -1.1467270630e-04
   -1.1467270630e-04
   -1.1467270630e-04
   -1.1129997965e-04
   -1.1129997965e-04
   -1.1129997965e-04
   -1.1129997965e-04
   -1.0792725299e-04
   -1.0792725299e-04
   -1.0792725299e-04
   -1.0792725299e-04
   -1.0455452633e-04
   -1.0455452633e-04
   -1.0455452633e-04
   -1.0455452633e-04
   -1.0118179968e-04
   -1.0118179968e-04
   -1.0118179968e-04
   -1.0118179968e-04
   -9.7809073022e-05
   -9.7809073022e-05
   -9.7809073022e-05
   -9.7809073022e-05
   -9.4436346366e-05
   -9.4436346366e-05
   -9.4436346366e-05
   -9.4436346366e-05
   -9.1063619710e-05
   -9.1063619710e-05
   -9.1063619710e-05
   -9.1063619710e-05
   -8.7690893054e-05
   -8.7690893054e-05
   -8.7690893054e-05
   -8.7690893054e-05
   -8.4318166398e-05
   -8.4318166398e-05
   -8.4318166398e-05
   -8.4318166398e-05
   -8.0945439743e-05
   -8.0945439743e-05
   -8.0945439743e-05
   -8.0945439743e-05
   -7.7572713087e-05
   -7.7572713087e-05
   -7.7572713087e-05
   -7.7572713087e-05
   -7.4199986431e-05
   -7.4199986431e-05
   -7.4199986431e-05
   -7.4199986431e-05
   -7.0827259775e-05
   -7.0827259775e-05
   -7.0827259775e-05
   -7.0827259775e-05
   -6.7454533119e-05
   -6.7454533119e-05
   -6.7454533119e-05
   -6.7454533119e-05
   -6.4081806463e-05
   -6.4081806463e-05
   -6.4081806463e-05
   -6.4081806463e-05
   -6.0709079807e-05
   -6.0709079807e-05
   -6.0709079807e-05
   -6.0709079807e-05
   -5.7336353151e-05
   -5.7336353151e-05
   -5.7336353151e-05
   -5.7336353151e-05
   -5.3963626495e-05
   -5.3963626495e-05
   -5.3963626495e-05
   -5.3963626495e-05
   -5.0590899839e-05
   -5.0590899839e-05
   -5.0590899839e-05
   -5.0590899839e-05
   -4.7218173183e-05
   -4.7218173183e-05
   -4.7218173183e-05
   -4.7218173183e-05
   -4.3845446527e-05
   -4.3845446527e-05
   -4.3845446527e-05
   -4.3845446527e-05
   -4.0472719871e-05
   -4.0472719871e-05
   -4.0472719871e-05
   -4.0472719871e-05
   -3.7099993215e-05
   -3.7099993215e-05
   -3.7099993215e-05
   -3.7099993215e-05
   -3.3727266559e-05
   -3.3727266559e-05
   -3.3727266559e-05
   -3.3727266559e-05
   -3.0354539903e-05
   -3.0354539903e-05
   -3.0354539903e-05
   -3.0354539903e-05
   -2.6981813248e-05
   -2.6981813248e-05
   -2.6981813248e-05
   -2.6981813248e-05
   -2.3609086592e-05
   -2.3609086592e-05
   -2.3609086592e-05
   -2.3609086592e-05
   -2.0236359936e-05
   -2.0236359936e-05
   -2.0236359936e-05
   -2.0236359936e-05
   -1.6863633280e-05
   -1.6863633280e-05
   -1.6863633280e-05
   -1.6863633280e-05
   -1.3490906624e-05
   -1.3490906624e-05
   -1.3490906624e-05
   -1.3490906624e-05
   -1.0118179968e-05
   -1.0118179968e-05
   -1.0118179968e-05
   -1.0118179968e-05
   -6.7454533119e-06
   -6.7454533119e-06
   -6.7454533119e-06
   -6.7454533119e-06
   -3.3727266559e-06
   -3.3727266559e-06
   -3.3727266559e-06
   -3.3727266559e-06
    0.0000000000e+00
    0.0000000000e+00
    0.0000000000e+00
    0.0000000000e+00
    3.3727266559e-06
    3.3727266559e-06
    3.3727266559e-06
    3.3727266559e-06
    6.7454533119e-06
    6.7454533119e-06
    6.7454533119e-06
    6.7454533119e-06
    1.0118179968e-05
    1.0118179968e-05
    1.0118179968e-05
    1.0118179968e-05
    1.3490906624e-05
    1.3490906624e-05
    1.3490906624e-05
    1.3490906624e-05
    1.6863633280e-05
    1.6863633280e-05
    1.6863633280e-05
    1.6863633280e-05
    2.0236359936e-05
    2.0236359936e-05
    2.0236359936e-05
    2.0236359936e-05
    2.3609086592e-05
    2.3609086592e-05
    2.3609086592e-05
    2.3609086592e-05
    2.6981813248e-05
    2.6981813248e-05
    2.6981813248e-05
    2.6981813248e-05
    3.0354539903e-05
    3.0354539903e-05
    3.0354539903e-05
    3.0354539903e-05
    3.3727266559e-05
    3.3727266559e-05
    3.3727266559e-05
    3.3727266559e-05
    3.7099993215e-05
    3.7099993215e-05
    3.7099993215e-05
    3.7099993215e-05
    4.0472719871e-05
    4.0472719871e-05
    4.0472719871e-05
    4.0472719871e-05
    4.3845446527e-05
    4.3845446527e-05
    4.3845446527e-05
    4.3845446527e-05
    4.7218173183e-05
    4.7218173183e-05
    4.7218173183e-05
    4.7218173183e-05
    5.0590899839e-05
    5.0590899839e-05
    5.0590899839e-05
    5.0590899839e-05
    5.3963626495e-05
    5.3963626495e-05
    5.3963626495e-05
    5.3963626495e-05
    5.7336353151e-05
    5.7336353151e-05
    5.7336353151e-05
    5.7336353151e-05
    6.0709079807e-05
    6.0709079807e-05
    6.0709079807e-05
    6.0709079807e-05
    6.4081806463e-05
    6.4081806463e-05
    6.4081806463e-05
    6.4081806463e-05
    6.7454533119e-05
    6.7454533119e-05
    6.7454533119e-05
    6.7454533119e-05
    7.0827259775e-05
    7.0827259775e-05
    7.0827259775e-05
    7.0827259775e-05
    7.4199986431e-05
    7.4199986431e-05
    7.4199986431e-05
    7.4199986431e-05
    7.7572713087e-05
    7.7572713087e-05
    7.7572713087e-05
    7.7572713087e-05
    8.0945439743e-05
    8.0945439743e-05
    8.0945439743e-05
    8.0945439743e-05
    8.4318166398e-05
    8.4318166398e-05
    8.4318166398e-05
    8.4318166398e-05
    8.7690893054e-05
    8.7690893054e-05
    8.7690893054e-05
    8.7690893054e-05
    9.1063619710e-05
    9.1063619710e-05
    9.1063619710e-05
    9.1063619710e-05
    9.4436346366e-05
    9.4436346366e-05
    9.4436346366e-05
    9.4436346366e-05
    9.7809073022e-05
    9.7809073022e-05
    9.7809073022e-05
    9.7809073022e-05
    1.0118179968e-04
    1.0118179968e-04
    1.0118179968e-04
    1.0118179968e-04
    1.0455452633e-04
    1.0455452633e-04
    1.0455452633e-04
    1.0455452633e-04
    1.0792725299e-04
    1.0792725299e-04
    1.0792725299e-04
    1.0792725299e-04
    1.1129997965e-04
    1.1129997965e-04
    1.1129997965e-04
    1.1129997965e-04
    1.1467270630e-04
    1.1467270630e-04
    1.1467270630e-04
    1.1467270630e-04
    1.1804543296e-04
    1.1804543296e-04
    1.1804543296e-04
    1.1804543296e-04
    1.2141815961e-04
    1.2141815961e-04
    1.2141815961e-04
    1.2141815961e-04
    1.2479088627e-04
    1.2479088627e-04
    1.2479088627e-04
    1.2479088627e-04
    1.2816361293e-04
    1.2816361293e-04
    1.2816361293e-04
    1.2816361293e-04
    1.3153633958e-04
    1.3153633958e-04
    1.3153633958e-04
    1.3153633958e-04
    1.3490906624e-04
    1.3490906624e-04
    1.3490906624e-04
    1.3490906624e-04
    0.0000000000e+00
    0.0000000000e+00
    1.3490906624e-05
    1.3490906624e-05
    0.0000000000e+00
    0.0000000000e+00
    1.3490906624e-05
    1.3490906624e-05
    0.0000000000e+00
    1.3490906624e-05
    0.0000000000e+00
    1.3490906624e-05
    0.0000000000e+00
    1.3490906624e-05
    0.0000000000e+00
    1.3490906624e-05
    0.0000000000e+00
    1.3490906624e-05
    0.0000000000e+00
    1.3490906624e-05
    0.0000000000e+00
    1.3490906624e-05
    0.0000000000e+00
    1.3490906624e-05
    0.0000000000e+00
    1.3490906624e-05
    0.0000000000e+00
    1.3490906624e-05
    0.0000000000e+00
    1.3490906624e-05
    0.0000000000e+00
    1.3490906624e-05
    0.0000000000e+00
    1.3490906624e-05
    0.0000000000e+00
    1.3490906624e-05
    0.0000000000e+00
    1.3490906624e-05
    0.0000000000e+00
    1.3490906624e-05
    0.0000000000e+00
    1.3490906624e-05
    0.0000000000e+00
    1.3490906624e-05
    0.0000000000e+00
    1.3490906624e-05
    0.0000000000e+00
    1.3490906624e-05
    0.0000000000e+00
    1.3490906624e-05
    0.0000000000e+00
    1.3490906624e-05
    0.0000000000e+00
    1.3490906624e-05
    0.0000000000e+00
    1.3490906624e-05
    0.0000000000e+00
    1.3490906624e-05
    0.0000000000e+00
    1.3490906624e-05
    0.0000000000e+00
    1.3490906624e-05
    0.0000000000e+00
    1.3490906624e-05
    0.0000000000e+00
    1.3490906624e-05
    0.0000000000e+00
    1.3490906624e-05
    0.0000000000e+00
    1.3490906624e-05
    0.0000000000e+00
    1.3490906624e-05
    0.0000000000e+00
    1.3490906624e-05
    0.0000000000e+00
    1.3490906624e-05
    0.0000000000e+00
    1.3490906624e-05
    0.0000000000e+00
    1.3490906624e-05
    0.0000000000e+00
    1.3490906624e-05
    0.0000000000e+00
    1.3490906624e-05
    0.0000000000e+00
    1.3490906624e-05
    0.0000000000e+00
    1.3490906624e-05
    0.0000000000e+00
    1.3490906624e-05
    0.0000000000e+00
    1.3490906624e-05
    0.0000000000e+00
    1.3490906624e-05
    0.0000000000e+00
    1.3490906624e-05
    0.0000000000e+00
    1.3490906624e-05
    0.0000000000e+00
    1.3490906624e-05
    0.0000000000e+00
    1.3490906624e-05
    0.0000000000e+00
    1.3490906624e-05
    0.0000000000e+00
    1.3490906624e-05
    0.0000000000e+00
    1.3490906624e-05
    0.0000000000e+00
    1.3490906624e-05
    0.0000000000e+00
    1.3490906624e-05
    0.0000000000e+00
    1.3490906624e-05
    0.0000000000e+00
    1.3490906624e-05
    0.0000000000e+00
    1.3490906624e-05
    0.0000000000e+00
    1.3490906624e-05
    0.0000000000e+00
    1.3490906624e-05
    0.0000000000e+00
    1.3490906624e-05
    0.0000000000e+00
    1.3490906624e-05
    0.0000000000e+00
    1.3490906624e-05
    0.0000000000e+00
    1.3490906624e-05
    0.0000000000e+00
    1.3490906624e-05
    0.0000000000e+00
    1.3490906624e-05
    0.0000000000e+00
    1.3490906624e-05
    0.0000000000e+00
    1.3490906624e-05
    0.0000000000e+00
    1.3490906624e-05
    0.0000000000e+00
    1.3490906624e-05
    0.0000000000e+00
    1.3490906624e-05
    0.0000000000e+00
    1.3490906624e-05
    0.0000000000e+00
    1.3490906624e-05
    0.0000000000e+00
    1.3490906624e-05
    0.0000000000e+00
    1.3490906624e-05
    0.0000000000e+00
    1.3490906624e-05
    0.0000000000e+00
    1.3490906624e-05
    0.0000000000e+00
    1.3490906624e-05
    0.0000000000e+00
    1.3490906624e-05
    0.0000000000e+00
    1.3490906624e-05
    0.0000000000e+00
    1.3490906624e-05
    0.0000000000e+00
    1.3490906624e-05
    0.0000000000e+00
    1.3490906624e-05
    0.0000000000e+00
    1.3490906624e-05
    0.0000000000e+00
    1.3490906624e-05
    0.0000000000e+00
    1.3490906624e-05
    0.0000000000e+00
    1.3490906624e-05
    0.0000000000e+00
    1.3490906624e-05
    0.0000000000e+00
    1.3490906624e-05
    0.0000000000e+00
    1.3490906624e-05
    0.0000000000e+00
    1.3490906624e-05
    0.0000000000e+00
    1.3490906624e-05
    0.0000000000e+00
    1.3490906624e-05
    0.0000000000e+00
    1.3490906624e-05
    0.0000000000e+00
    1.3490906624e-05
    0.0000000000e+00
    1.3490906624e-05
    0.0000000000e+00
    1.3490906624e-05
    0.0000000000e+00
    1.3490906624e-05
    0.0000000000e+00
    1.3490906624e-05
    0.0000000000e+00
    1.3490906624e-05
    0.0000000000e+00
    1.3490906624e-05
    0.0000000000e+00
    1.3490906624e-05
    0.0000000000e+00
    1.3490906624e-05
    0.0000000000e+00
    1.3490906624e-05
    0.0000000000e+00
    1.3490906624e-05
    0.0000000000e+00
    1.3490906624e-05
    0.0000000000e+00
    1.3490906624e-05
    0.0000000000e+00
    1.3490906624e-05
    0.0000000000e+00
    1.3490906624e-05
    0.0000000000e+00
    1.3490906624e-05
    0.0000000000e+00
    1.3490906624e-05
    0.0000000000e+00
    1.3490906624e-05
    0.0000000000e+00
    1.3490906624e-05
    0.0000000000e+00
    1.3490906624e-05
    0.0000000000e+00
    1.3490906624e-05
    0.0000000000e+00
    1.3490906624e-05
    0.0000000000e+00
    1.3490906624e-05
    0.0000000000e+00
    1.3490906624e-05
    0.0000000000e+00
    1.3490906624e-05
    0.0000000000e+00
    1.3490906624e-05
    0.0000000000e+00
    1.3490906624e-05
    0.0000000000e+00
    1.3490906624e-05
    0.0000000000e+00
    1.3490906624e-05
    0.0000000000e+00
    1.3490906624e-05
    0.0000000000e+00
    1.3490906624e-05
    0.0000000000e+00
    1.3490906624e-05
    0.0000000000e+00
    1.3490906624e-05
    0.0000000000e+00
    1.3490906624e-05
    0.0000000000e+00
    1.3490906624e-05
    0.0000000000e+00
    1.3490906624e-05
    0.0000000000e+00
    1.3490906624e-05
    0.0000000000e+00
    1.3490906624e-05
    0.0000000000e+00
    1.3490906624e-05
    0.0000000000e+00
    1.3490906624e-05
    0.0000000000e+00
    1.3490906624e-05
    0.0000000000e+00
    1.3490906624e-05
    0.0000000000e+00
    1.3490906624e-05
    0.0000000000e+00
    1.3490906624e-05
    0.0000000000e+00
    1.3490906624e-05
    0.0000000000e+00
    1.3490906624e-05
    0.0000000000e+00
    1.3490906624e-05
    0.0000000000e+00
    1.3490906624e-05
    0.0000000000e+00
    1.3490906624e-05
    0.0000000000e+00
    1.3490906624e-05
    0.0000000000e+00
    1.3490906624e-05
    0.0000000000e+00
    1.3490906624e-05
    0.0000000000e+00
    1.3490906624e-05
    0.0000000000e+00
    1.3490906624e-05
    0.0000000000e+00
    1.3490906624e-05
    0.0000000000e+00
    1.3490906624e-05
    0.0000000000e+00
    1.3490906624e-05
    0.0000000000e+00
    1.3490906624e-05
    0.0000000000e+00
    1.3490906624e-05
    0.0000000000e+00
    1.3490906624e-05
    0.0000000000e+00
    1.3490906624e-05
    0.0000000000e+00
    1.3490906624e-05
    0.0000000000e+00
    1.3490906624e-05
    0.0000000000e+00
    1.3490906624e-05
    0.0000000000e+00
    1.3490906624e-05
    0.0000000000e+00
    1.3490906624e-05
    0.0000000000e+00
    1.3490906624e-05
    0.0000000000e+00
    0.0000000000e+00
    0.0000000000e+00
    0.0000000000e+00
    1.3490906624e-05
    1.3490906624e-05
    1.3490906624e-05
    1.3490906624e-05
    0.0000000000e+00
    0.0000000000e+00
    1.3490906624e-05
    1.3490906624e-05
    0.0000000000e+00
    0.0000000000e+00
    1.3490906624e-05
    1.3490906624e-05
    0.0000000000e+00
    0.0000000000e+00
    1.3490906624e-05
    1.3490906624e-05
    0.0000000000e+00
    0.0000000000e+00
    1.3490906624e-05
    1.3490906624e-05
    0.0000000000e+00
    0.0000000000e+00
    1.3490906624e-05
    1.3490906624e-05
    0.0000000000e+00
    0.0000000000e+00
    1.3490906624e-05
    1.3490906624e-05
    0.0000000000e+00
    0.0000000000e+00
    1.3490906624e-05
    1.3490906624e-05
    0.0000000000e+00
    0.0000000000e+00
    1.3490906624e-05
    1.3490906624e-05
    0.0000000000e+00
    0.0000000000e+00
    1.3490906624e-05
    1.3490906624e-05
    0.0000000000e+00
    0.0000000000e+00
    1.3490906624e-05
    1.3490906624e-05
    0.0000000000e+00
    0.0000000000e+00
    1.3490906624e-05
    1.3490906624e-05
    0.0000000000e+00
    0.0000000000e+00
    1.3490906624e-05
    1.3490906624e-05
    0.0000000000e+00
    0.0000000000e+00
    1.3490906624e-05
    1.3490906624e-05
    0.0000000000e+00
    0.0000000000e+00
    1.3490906624e-05
    1.3490906624e-05
    0.0000000000e+00
    0.0000000000e+00
    1.3490906624e-05
    1.3490906624e-05
    0.0000000000e+00
    0.0000000000e+00
    1.3490906624e-05
    1.3490906624e-05
    0.0000000000e+00
    0.0000000000e+00
    1.3490906624e-05
    1.3490906624e-05
    0.0000000000e+00
    0.0000000000e+00
    1.3490906624e-05
    1.3490906624e-05
    0.0000000000e+00
    0.0000000000e+00
    1.3490906624e-05
    1.3490906624e-05
    0.0000000000e+00
    0.0000000000e+00
    1.3490906624e-05
    1.3490906624e-05
    0.0000000000e+00
    0.0000000000e+00
    1.3490906624e-05
    1.3490906624e-05
    0.0000000000e+00
    0.0000000000e+00
    1.3490906624e-05
    1.3490906624e-05
    0.0000000000e+00
    0.0000000000e+00
    1.3490906624e-05
    1.3490906624e-05
    0.0000000000e+00
    0.0000000000e+00
    1.3490906624e-05
    1.3490906624e-05
    0.0000000000e+00
    0.0000000000e+00
    1.3490906624e-05
    1.3490906624e-05
    0.0000000000e+00
    0.0000000000e+00
    1.3490906624e-05
    1.3490906624e-05
    0.0000000000e+00
    0.0000000000e+00
    1.3490906624e-05
    1.3490906624e-05
    0.0000000000e+00
    0.0000000000e+00
    1.3490906624e-05
    1.3490906624e-05
    0.0000000000e+00
    0.0000000000e+00
    1.3490906624e-05
    1.3490906624e-05
    0.0000000000e+00
    0.0000000000e+00
    1.3490906624e-05
    1.3490906624e-05
    0.0000000000e+00
    0.0000000000e+00
    1.3490906624e-05
    1.3490906624e-05
    0.0000000000e+00
    0.0000000000e+00
    1.3490906624e-05
    1.3490906624e-05
    0.0000000000e+00
    0.0000000000e+00
    1.3490906624e-05
    1.3490906624e-05
    0.0000000000e+00
    0.0000000000e+00
    1.3490906624e-05
    1.3490906624e-05
    0.0000000000e+00
    0.0000000000e+00
    1.3490906624e-05
    1.3490906624e-05
    0.0000000000e+00
    0.0000000000e+00
    1.3490906624e-05
    1.3490906624e-05
    0.0000000000e+00
    0.0000000000e+00
    1.3490906624e-05
    1.3490906624e-05
    0.0000000000e+00
    0.0000000000e+00
    1.3490906624e-05
    1.3490906624e-05
    0.0000000000e+00
    0.0000000000e+00
    1.3490906624e-05
    1.3490906624e-05
    0.0000000000e+00
    0.0000000000e+00
    1.3490906624e-05
    1.3490906624e-05
    0.0000000000e+00
    0.0000000000e+00
    1.3490906624e-05
    1.3490906624e-05
    0.0000000000e+00
    0.0000000000e+00
    1.3490906624e-05
    1.3490906624e-05
    0.0000000000e+00
    0.0000000000e+00
    1.3490906624e-05
    1.3490906624e-05
    0.0000000000e+00
    0.0000000000e+00
    1.3490906624e-05
    1.3490906624e-05
    0.0000000000e+00
    0.0000000000e+00
    1.3490906624e-05
    1.3490906624e-05
    0.0000000000e+00
    0.0000000000e+00
    1.3490906624e-05
    1.3490906624e-05
    0.0000000000e+00
    0.0000000000e+00
    1.3490906624e-05
    1.3490906624e-05
    0.0000000000e+00
    0.0000000000e+00
    1.3490906624e-05
    1.3490906624e-05
    0.0000000000e+00
    0.0000000000e+00
    1.3490906624e-05
    1.3490906624e-05
    0.0000000000e+00
    0.0000000000e+00
    1.3490906624e-05
    1.3490906624e-05
    0.0000000000e+00
    0.0000000000e+00
    1.3490906624e-05
    1.3490906624e-05
    0.0000000000e+00
    0.0000000000e+00
    1.3490906624e-05
    1.3490906624e-05
    0.0000000000e+00
    0.0000000000e+00
    1.3490906624e-05
    1.3490906624e-05
    0.0000000000e+00
    0.0000000000e+00
    1.3490906624e-05
    1.3490906624e-05
    0.0000000000e+00
    0.0000000000e+00
    1.3490906624e-05
    1.3490906624e-05
    0.0000000000e+00
    0.0000000000e+00
    1.3490906624e-05
    1.3490906624e-05
    0.0000000000e+00
    0.0000000000e+00
    1.3490906624e-05
    1.3490906624e-05
    0.0000000000e+00
    0.0000000000e+00
    1.3490906624e-05
    1.3490906624e-05
    0.0000000000e+00
    0.0000000000e+00
    1.3490906624e-05
    1.3490906624e-05
    0.0000000000e+00
    0.0000000000e+00
    1.3490906624e-05
    1.3490906624e-05
    0.0000000000e+00
    0.0000000000e+00
    1.3490906624e-05
    1.3490906624e-05
    0.0000000000e+00
    0.0000000000e+00
    1.3490906624e-05
    1.3490906624e-05
    0.0000000000e+00
    0.0000000000e+00
    1.3490906624e-05
    1.3490906624e-05
    0.0000000000e+00
    0.0000000000e+00
    1.3490906624e-05
    1.3490906624e-05
    0.0000000000e+00
    0.0000000000e+00
    1.3490906624e-05
    1.3490906624e-05
    0.0000000000e+00
    0.0000000000e+00
    1.3490906624e-05
    1.3490906624e-05
    0.0000000000e+00
    0.0000000000e+00
    1.3490906624e-05
    1.3490906624e-05
    0.0000000000e+00
    0.0000000000e+00
    1.3490906624e-05
    1.3490906624e-05
    0.0000000000e+00
    0.0000000000e+00
    1.3490906624e-05
    1.3490906624e-05
    0.0000000000e+00
    0.0000000000e+00
    1.3490906624e-05
    1.3490906624e-05
    0.0000000000e+00
    0.0000000000e+00
    1.3490906624e-05
    1.3490906624e-05
    0.0000000000e+00
    0.0000000000e+00
    1.3490906624e-05
    1.3490906624e-05
    0.0000000000e+00
    0.0000000000e+00
    1.3490906624e-05
    1.3490906624e-05
    0.0000000000e+00
    0.0000000000e+00
    1.3490906624e-05
    1.3490906624e-05
    0.0000000000e+00
    0.0000000000e+00
    1.3490906624e-05
    1.3490906624e-05
    0.0000000000e+00
    0.0000000000e+00
    1.3490906624e-05
    1.3490906624e-05
    0.0000000000e+00
    0.0000000000e+00
    1.3490906624e-05
    1.3490906624e-05
    0.0000000000e+00
    0.0000000000e+00
    1.3490906624e-05
    1.3490906624e-05
    0.0000000000e+00
    0.0000000000e+00
    1.3490906624e-05
    1.3490906624e-05
    1.9998700304e+23
    2.0000430807e+23
    2.0002253870e+23
    2.0004238927e+23
    2.0006445821e+23
    2.0008932369e+23
    2.0011759265e+23
    2.0014993861e+23
    2.0018713508e+23
    2.0023008890e+23
    2.0027987722e+23
    2.0033779109e+23
    2.0040538901e+23
    2.0048456382e+23
    2.0057762480e+23
    2.0068730420e+23
    2.0081723846e+23
    2.0097179405e+23
    2.0115643174e+23
    2.0137827290e+23
    2.0164653312e+23
    2.0197313298e+23
    2.0237405961e+23
    2.0287101802e+23
    2.0349416404e+23
    2.0428622281e+23
    2.0530894363e+23
    2.0665296012e+23
    2.0845229498e+23
    2.1090415369e+23
    2.1429185053e+23
    2.1900168599e+23
    2.2553300689e+23
    2.3451604600e+23
    2.4679248459e+23
    2.6355743636e+23
    2.8635081183e+23
    3.1646704805e+23
    3.5367946783e+23
    3.9532480747e+23
    4.3708841034e+23
    4.7497339157e+23
    5.0667398404e+23
    5.3165941616e+23
    5.5054279813e+23
    5.6441516692e+23
    5.7441765695e+23
    5.8154345133e+23
    5.8658070240e+23
    5.9012323366e+23
    5.9260466297e+23
    5.9433597116e+23
    5.9553759840e+23
    5.9636480924e+23
    5.9692648572e+23
    5.9729899062e+23
    5.9753582535e+23
    5.9767451911e+23
    5.9774145686e+23
    5.9775525168e+23
    5.9772917197e+23
    5.9767251204e+23
    5.9759216745e+23
    5.9749321760e+23
    5.9737953226e+23
    5.9725419493e+23
    5.9711980410e+23
    5.9697870231e+23
    5.9683316182e+23
    5.9668555176e+23
    5.9653851213e+23
    5.9639516424e+23
    5.9625940045e+23
    5.9613632438e+23
    5.9603297245e+23
    5.9595963009e+23
    5.9593233748e+23
    5.9597827927e+23
    5.9614823657e+23
    5.9654692539e+23
    7.8941229766e+02
    7.8932185819e+02
    7.8922792976e+02
    7.8912778367e+02
    7.8901908958e+02
    7.8889960580e+02
    7.8876698789e+02
    7.8861864254e+02
    7.8845160037e+02
    7.8826238978e+02
    7.8804689899e+02
    7.8780021439e+02
    7.8751642390e+02
    7.8718837327e+02
    7.8680737518e+02
    7.8636303129e+02
    7.8584190994e+02
    7.8522777174e+02
    7.8450039399e+02
    7.8363370556e+02
    7.8259434768e+02
    7.8133926085e+02
    7.7981142428e+02
    7.7793436710e+02
    7.7560327475e+02
    7.7267211495e+02
    7.6893415669e+02
    7.6409390507e+02
    7.5772985874e+02
    7.4925272747e+02
    7.3787779031e+02
    7.2265962370e+02
    7.0260135715e+02
    6.7680782332e+02
    6.4454217862e+02
    6.0525568607e+02
    5.5904615401e+02
    5.0778552916e+02
    4.5577315076e+02
    4.0825572954e+02
    3.6883346511e+02
    3.3842337781e+02
    3.1606208607e+02
    3.0008472640e+02
    2.8885088191e+02
    2.8101812190e+02
    2.7557851726e+02
    2.7180664929e+02
    2.6919219914e+02
    2.6738027333e+02
    2.6612524415e+02
    2.6525735343e+02
    2.6465922646e+02
    2.6424970468e+02
    2.6397238969e+02
    2.6378799179e+02
    2.6366904031e+02
    2.6359623088e+02
    2.6355591569e+02
    2.6353834160e+02
    2.6353652659e+02
    2.6354549329e+02
    2.6356146231e+02
    2.6358162398e+02
    2.6360383473e+02
    2.6362641491e+02
    2.6364801174e+02
    2.6366749752e+02
    2.6368389032e+02
    2.6369628550e+02
    2.6370378688e+02
    2.6370542588e+02
    2.6370005306e+02
    2.6368617760e+02
    2.6366169366e+02
    2.6362346716e+02
    2.6356652303e+02
    2.6348220596e+02
    2.6335430732e+02
    2.6314966355e+02
    2.4836655586e-08
    1.9886478059e-08
    1.8766754291e-08
    1.7858831645e-08
    1.7248118171e-08
    1.6941365221e-08
    1.6858369315e-08
    1.6709187072e-08
    1.5790139617e-08
    1.2646608645e-08
    4.5713549540e-09
   -1.2687752849e-08
   -4.2715275641e-08
   -7.3898752738e-08
   -6.0416695971e-08
   -9.5705471650e-08
   -6.5634709994e-08
   -6.5872103728e-08
   -6.3365939432e-08
   -5.3818071933e-08
   -4.5692108943e-08
   -4.0548028320e-08
   -3.8461413631e-08
   -4.5691448554e-08
   -5.4503602093e-08
   -4.9501073771e-08
   -4.3951353776e-08
   -4.2455489470e-08
   -3.9716460542e-08
   -3.6174622401e-08
   -3.0610805561e-08
   -1.2706620272e-08
   -2.4103238715e-08
   -2.1828160497e-08
   -1.8286456339e-08
   -1.4904074491e-08
   -1.1814938422e-08
   -9.0358011396e-09
   -6.5780114406e-09
   -4.6261793694e-09
   -4.9101365320e-09
   -1.5900594257e-08
   -1.8573931718e-08
   -1.8297471015e-08
   -1.7919801390e-08
   -7.1032465853e-10
    1.8955017072e-10
    1.1898655439e-08
    7.0879587081e-10
    2.7393569438e-08
    2.9253895428e-08
    5.8743436480e-08
    6.3850092293e-09
    5.8531393985e-09
    4.6221877810e-09
    3.6911668896e-09
    3.7192941818e-09
    8.4109116516e-09
    3.5341204302e-09
    3.6414453558e-10
    3.6952237265e-10
    1.0863830251e-11
   -9.0762000882e-10
   -7.6954145569e-10
   -4.8088208990e-10
   -3.6327990813e-10
   -2.9302711884e-10
   -1.9957110727e-10
   -1.7886162919e-10
   -2.9576825873e-10
   -8.5140958577e-10
   -2.5913883115e-09
    8.3172440358e-11
    1.7960188440e-09
    1.0096019177e-09
   -1.1616661758e-09
   -1.1383559895e-09
   -4.5307396698e-10
   -2.3636625823e-10
   -1.1446885210e-10
    6.8022506519e-09
   -2.9582261690e-09
   -2.9499505051e-09
   -2.8231854458e-09
   -2.6351679177e-09
   -2.4104538755e-09
   -2.1607376041e-09
   -1.8909362441e-09
   -1.6013182042e-09
   -1.2832409901e-09
   -9.1635054345e-10
   -4.5897721521e-10
    1.7230342034e-10
    1.1364518076e-09
    2.7683049452e-09
    5.6563292660e-09
    1.1318532230e-08
    2.2750566035e-08
    4.4916475962e-08
    8.2789455373e-08
   -1.0118864019e-07
   -1.0212073486e-07
   -9.9774857462e-08
   -9.3901751076e-08
   -8.6721473900e-08
   -7.8634231431e-08
   -6.9756456097e-08
   -6.2012440548e-08
   -5.5868941231e-08
   -4.8539273553e-08
   -4.2360958337e-08
   -3.6397579205e-08
   -3.0884765572e-08
   -2.6069043800e-08
   -2.1590127716e-08
   -1.7566766098e-08
   -1.3882617007e-08
   -1.0814640870e-08
   -8.1726720456e-09
   -6.0427446449e-09
   -4.3441394566e-09
   -3.0912147016e-09
   -2.0107562910e-09
   -3.5273246128e-10
    7.1767957897e-09
    8.9454585002e-08
    5.3683279417e-08
    2.6432488580e-07
    5.7268515565e-08
    4.0081062440e-08
    2.9834593095e-08
    2.1383085388e-08
    1.3004492445e-08
    8.6058296563e-09
    5.0053282239e-09
    2.2120302698e-09
    4.2031190533e-10
   -6.9067049593e-10
   -1.5159702136e-09
   -1.6759714084e-09
   -1.1833460327e-09
   -9.8024049046e-10
   -1.3108377417e-09
    1.6301738261e-09
   -8.8638877653e-09
   -7.7447632595e-09
   -7.6065022619e-09
   -6.7743609961e-09
   -5.9614174473e-09
   -5.2107229019e-09
   -4.3869652186e-09
   -3.5284190744e-09
   -2.7162457402e-09
   -2.0334239929e-09
   -1.4519001076e-09
   -1.0149778499e-09
   -6.8526213956e-10
   -3.4364578211e-10
   -1.7435297983e-10
   -9.7982959362e-11
    5.5397883658e+02
    5.5447243582e+02
    5.5499690550e+02
    5.5556508245e+02
    5.5618873119e+02
    5.5687991157e+02
    5.5765176846e+02
    5.5851919084e+02
    5.5949943816e+02
    5.6061280426e+02
    5.6188337602e+02
    5.6333994170e+02
    5.6501710870e+02
    5.6695668905e+02
    5.6920930890e+02
    5.7183447476e+02
    5.7491117358e+02
    5.7853320216e+02
    5.8281588854e+02
    5.8791158233e+02
    5.9401081304e+02
    6.0135950658e+02
    6.1028250409e+02
    6.2121414275e+02
    6.3474933925e+02
    6.5171736108e+02
    6.7329769824e+02
    7.0119417873e+02
    7.3788792086e+02
    7.8697961394e+02
    8.5358133884e+02
    9.4452001090e+02
    1.0683582437e+03
    1.2350605967e+03
    1.4559562003e+03
    1.7439342756e+03
    2.1115927863e+03
    2.5635130433e+03
    3.0841214941e+03
    3.6334749058e+03
    4.1605996012e+03
    4.6242517145e+03
    5.0041909169e+03
    5.2993823803e+03
    5.5201872859e+03
    5.6811007395e+03
    5.7963317213e+03
    5.8779068989e+03
    5.9352168943e+03
    5.9752782534e+03
    6.0031684519e+03
    6.0225134260e+03
    6.0358703121e+03
    6.0450401653e+03
    6.0512760836e+03
    6.0554572907e+03
    6.0581989336e+03
    6.0599324855e+03
    6.0609616044e+03
    6.0614993038e+03
    6.0617050338e+03
    6.0616823469e+03
    6.0615120039e+03
    6.0612523989e+03
    6.0609466466e+03
    6.0606271965e+03
    6.0603188234e+03
    6.0600407505e+03
    6.0598081812e+03
    6.0596334460e+03
    6.0595269430e+03
    6.0594979963e+03
    6.0595557679e+03
    6.0597103706e+03
    6.0599739650e+03
    6.0603650203e+03
    6.0609131740e+03
    6.0616665697e+03
    6.0627120216e+03
    6.0642020164e+03
    2.0063574292e+02
    2.0079713573e+02
    2.0096874909e+02
    2.0115452753e+02
    2.0135811915e+02
    2.0158329431e+02
    2.0183418101e+02
    2.0211546339e+02
    2.0243257205e+02
    2.0279188648e+02
    2.0320096657e+02
    2.0366882894e+02
    2.0420628541e+02
    2.0482635958e+02
    2.0554476135e+02
    2.0637987169e+02
    2.0735602627e+02
    2.0850193107e+02
    2.0985260390e+02
    2.1145419581e+02
    2.1336368027e+02
    2.1565398184e+02
    2.1842028961e+02
    2.2178809399e+02
    2.2592651410e+02
    2.3106656834e+02
    2.3752873950e+02
    2.4576134443e+02
    2.5638972875e+02
    2.7026838848e+02
    2.8850687017e+02
    3.1237812078e+02
    3.4310235429e+02
    3.8144559655e+02
    4.2730038359e+02
    4.7926061613e+02
    5.3410747207e+02
    5.8671060483e+02
    6.3159478056e+02
    6.6570987584e+02
    6.8945120470e+02
    7.0516230427e+02
    7.1535590705e+02
    7.2195254245e+02
    7.2623910369e+02
    7.2903892621e+02